ITEM: TIMESTEP
110082
ITEM: NUMBER OF ATOMS
144
ITEM: BOX BOUNDS xy xz yz pp pp pp
0.0000000000000000e+00 2.9141273283673627e+01 4.9602167291359365e+00
0.0000000000000000e+00 5.5734193492135049e+01 1.4260623096265821e+01
0.0000000000000000e+00 2.4734580741297954e+01 4.4642811702655436e+01
ITEM: ATOMS id type x y z c_peatom
70 2 0 0 0 -3.37038
69 2 4.96022 4.00763e-16 0 -3.37722
81 2 6.61362 3.69713 0 -3.27967
82 2 11.5738 3.69713 0 -3.39984
80 2 4.13351 4.80627 0.905608 -3.26555
86 1 6.54501 8.29207 3.79132 -3.14158
91 2 9.09373 4.80627 0.905608 -3.42258
92 1 9.08266 7.1193 2.76175 -3.1613
93 1 6.63641 5.98255 1.82045 -3.28755
94 2 5.78692 8.50339 0.905608 -3.28112
95 2 8.26703 7.39425 0 -3.39585
98 1 8.97443 9.33753 4.86246 -3.10101
76 1 11.5647 5.89691 1.78853 -3.03103
96 2 13.2272 7.39425 0 -3.2738
104 2 10.7471 8.50339 0.905608 -3.25701
87 1 4.12762 9.58443 4.86825 -2.93659
68 2 7.44033 12.2005 0.905608 -3.35866
100 1 5.76861 10.8288 2.82682 -3.36018
102 1 8.23016 11.9237 3.77385 -3.37908
106 1 8.24664 9.66715 1.90009 -3.35694
101 1 5.76824 13.1067 4.69535 -3.34207
77 2 12.4005 12.2005 0.905608 -3.39013
79 1 9.91748 13.3147 1.87101 -3.42056
90 1 13.2301 9.62637 1.90202 -3.14296
103 1 13.1576 11.935 3.69721 -3.35068
105 1 10.7084 10.7532 2.84953 -3.273
108 1 10.6401 13.1218 4.6381 -3.33039
67 1 14.8715 13.3468 1.86896 -3.37304
72 1 7.43375 14.434 2.787 -3.29802
74 1 9.9387 15.649 3.63756 -2.97392
78 1 12.3784 14.497 2.72535 -3.40106
84 1 12.4047 16.8356 4.60278 -3.13955
89 1 14.8437 15.6205 3.67207 -3.21719
99 1 6.54605 10.6244 5.72414 -3.3556
83 1 11.4429 10.6474 5.76428 -3.14724
73 1 8.2176 14.4179 5.68988 -3.06591
9 1 7.02297 17.7653 8.55089 -3.05411
1 1 9.65239 16.61 7.67147 -3.06294
2 1 5.49078 15.4969 6.60806 -3.08552
75 1 13.1695 14.1168 5.39304 -3.23603
3 1 12.1006 17.926 8.84312 -3.27096
88 1 12.3606 15.8943 7.15789 -3.11273
71 1 14.1018 18.1221 6.81987 -3.02024
5 1 8.06174 20.3564 7.70113 -3.15623
6 1 9.59795 18.914 9.56249 -3.38179
97 1 8.97637 22.8906 6.66729 -3.39712
17 1 7.98686 22.6747 9.51662 -3.35914
109 1 13.9108 22.9112 6.62097 -3.31374
85 1 10.6909 19.1476 6.75136 -3.14729
14 1 12.9724 20.4617 7.76012 -3.27728
15 1 10.4864 21.4853 8.62154 -3.36364
16 1 12.9527 22.6622 9.56874 -3.35373
4 1 14.5927 18.9787 9.58557 -3.3073
20 1 15.468 21.5512 8.60286 -3.31886
35 1 11.4035 24.0391 7.56605 -3.3431
36 1 11.2897 26.3151 9.50335 -3.29336
44 1 13.8042 25.1576 8.5884 -3.28485
21 1 16.3563 24.1796 7.49757 -3.3513
22 1 18.8088 25.1788 8.56461 -3.31077
41 1 16.2543 26.3304 9.618 -3.33026
7 1 7.14879 20.0716 10.4768 -3.35097
8 2 9.61042 21.2123 11.4617 -3.3575
10 2 14.5706 21.2123 11.4617 -3.36453
13 1 12.0909 20.1191 10.5351 -3.37861
31 2 12.9172 24.9094 11.4617 -3.37472
32 2 10.4371 26.0185 12.3673 -3.37085
33 2 12.9172 27.1277 13.2729 -3.28297
34 1 10.4669 23.7641 10.4843 -3.3588
42 1 13.7415 27.4623 10.4643 -3.36943
18 1 15.4251 23.7687 10.4675 -3.34874
19 2 17.8774 24.9094 11.4617 -3.36591
37 2 17.8774 27.1277 13.2729 -3.29088
40 2 15.3973 26.0185 12.3673 -3.35912
46 1 18.7464 27.4514 10.4715 -3.34283
52 1 10.4139 28.2836 14.2829 -3.25697
53 2 11.2638 28.6065 11.4617 -3.34745
54 2 11.2638 30.8248 13.2729 -3.35332
58 1 13.7125 31.9294 14.2898 -3.3636
60 2 13.7439 29.7157 12.3673 -3.36415
38 1 15.3885 28.2971 14.2648 -3.23203
43 2 16.224 28.6065 11.4617 -3.37017
45 2 18.7042 29.7157 12.3673 -3.36961
57 2 16.224 30.8248 13.2729 -3.35621
62 1 18.6812 31.9257 14.2715 -3.36727
26 2 12.0905 33.4128 12.3673 -3.35287
23 2 14.5706 34.5219 13.2729 -3.36416
11 2 17.0507 33.4128 12.3673 -3.36496
30 1 17.009 35.6701 14.2306 -3.1663
12 2 19.5309 34.5219 13.2729 -3.40549
24 1 21.9633 35.6977 14.2702 -3.32923
49 1 12.8391 29.3204 15.3 -3.2524
50 1 10.3426 30.5294 16.2239 -3.33269
29 1 12.7913 31.7168 17.1479 -3.35339
39 1 17.8346 29.3147 15.2924 -3.27771
55 1 17.7669 31.6872 17.1581 -3.3376
56 1 15.3143 30.4774 16.244 -3.32691
66 1 13.6605 34.3077 16.1297 -3.17639
107 1 13.4719 37.1699 18.1065 -2.9933
25 1 14.495 36.8949 15.2743 -3.03197
59 1 16.1817 33.0553 15.1704 -3.2704
61 1 18.7029 34.2406 16.0857 -3.1228
51 1 15.2493 32.9595 18.0684 -3.22958
63 1 21.1513 33.1187 15.1974 -3.35297
27 1 19.5018 36.9017 15.2006 -3.0382
64 1 21.1125 35.646 17.1417 -3.17574
115 1 20.2509 32.9323 18.0762 -3.32778
47 1 13.5594 40.1925 18.1671 -3.26299
65 1 19.3638 37.6761 19.0781 -3.09168
28 1 15.9397 38.9721 17.1973 -2.91869
117 1 18.5362 40.2291 18.1521 -3.2418
114 1 16.0267 41.4191 19.0582 -3.35492
48 1 21.1321 38.7858 17.1084 -3.15297
129 1 20.9921 41.4342 19.0645 -3.35079
127 1 17.7154 45.2689 18.982 -3.29911
140 1 22.7031 45.1653 19.0232 -3.12058
136 1 14.3266 40.0122 20.9938 -3.20373
111 1 16.7875 38.879 20.0699 -3.06141
112 1 16.7945 41.2238 21.9018 -3.34533
113 1 19.2873 40.055 20.9468 -3.39599
116 1 21.7769 38.8898 20.0027 -3.27454
120 1 21.7339 41.2335 21.9178 -3.37606
110 1 14.2863 42.3625 22.8308 -3.37516
118 2 16.7407 43.5337 23.829 -3.35541
119 1 15.9365 46.0783 22.8276 -3.37086
122 1 19.2443 42.3757 22.8452 -3.34844
123 1 18.4924 42.6429 19.9834 -3.35177
124 1 18.4539 44.9405 21.8694 -3.33809
126 1 16.0064 43.7635 20.9396 -3.34199
128 1 23.4637 42.5917 20.0074 -3.3701
121 2 21.7009 43.5337 23.829 -3.38063
125 1 20.9526 43.7999 20.9383 -3.37619
132 1 23.4112 44.9069 21.9011 -3.36928
134 1 20.8823 46.1012 22.8133 -3.2629
139 1 25.1643 46.3151 20.0085 -3.28365
130 2 18.3941 47.2308 23.829 -3.26805
131 1 17.5717 49.7746 22.8537 -3.25989
138 1 17.6734 47.5164 20.9515 -3.1785
135 1 20.1362 46.4394 19.9127 -2.96633
133 2 23.3544 47.2308 23.829 -3.34453
137 1 22.6329 47.4466 21.0157 -3.10578
141 2 20.0475 50.9279 23.829 -3.25854
144 1 22.5497 49.7693 22.8581 -3.28387
142 1 25.0567 48.6294 21.9175 -3.37819
143 2 25.0078 50.9279 23.829 -3.39177
