ITEM: TIMESTEP
0
ITEM: NUMBER OF ATOMS
144
ITEM: BOX BOUNDS xy xz yz pp pp pp
0.0000000000000000e+00 2.6041137827963674e+01 4.9602167291359365e+00
0.0000000000000000e+00 5.1574925321080187e+01 1.1160487640555864e+01
0.0000000000000000e+00 1.9734580741297954e+01 4.0483543531600581e+01
ITEM: ATOMS id type x y z c_peatom
69 2 4.96022 4.55503e-16 0 -3.30613
70 2 0 0 0 -3.30613
81 2 6.61362 3.69713 0 -3.3122
82 2 11.5738 3.69713 0 -3.3122
80 2 4.13351 4.80627 0.905608 -3.34393
86 1 4.13351 7.02454 2.71682 -3.3089
88 1 6.61362 8.13368 3.62243 -2.75285
91 2 9.09373 4.80627 0.905608 -3.34393
92 1 9.09373 7.02454 2.71682 -3.3089
93 1 6.61362 5.9154 1.81122 -3.37274
94 2 5.78692 8.50339 0.905608 -3.3517
95 2 8.26703 7.39425 0 -3.3122
76 1 11.5738 5.9154 1.81122 -3.37274
89 1 11.5738 8.13368 3.62243 -2.75285
96 2 13.2272 7.39425 0 -3.3122
104 2 10.7471 8.50339 0.905608 -3.3517
68 2 7.44033 12.2005 0.905608 -3.32498
79 1 9.92043 13.3097 1.81122 -3.35162
100 1 5.78692 10.7217 2.71682 -3.307
101 1 5.78692 12.9399 4.52804 -3.21322
102 1 8.26703 11.8308 3.62243 -3.25886
106 1 8.26703 9.61253 1.81122 -3.35382
109 1 8.26703 14.0491 4.93365 2.64385
67 1 14.8807 13.3097 1.81122 -3.35162
77 2 12.4005 12.2005 0.905608 -3.32498
90 1 13.2272 9.61253 1.81122 -3.35382
97 1 13.2272 14.0491 4.93365 2.64385
103 1 13.2272 11.8308 3.62243 -3.25886
105 1 10.7471 10.7217 2.71682 -3.307
108 1 10.7471 12.9399 4.52804 -3.21322
72 1 7.44033 14.4188 2.71682 -3.27301
73 1 7.44033 16.6371 4.52804 -2.8557
74 1 9.92043 15.5279 3.62243 -3.31617
75 1 14.8807 15.5279 3.62243 -3.31617
78 1 12.4005 14.4188 2.71682 -3.27301
84 1 12.4005 16.6371 4.52804 -2.8557
87 1 9.09373 20.3342 4.52804 -2.40583
98 1 14.0539 20.3342 4.52804 -2.40583
35 1 4.75354 10.999 5.33925 -2.24733
21 1 9.71376 10.999 5.33925 -2.24733
99 1 6.61362 10.352 4.93365 -2.36525
83 1 11.5738 10.352 4.93365 -2.36525
1 1 8.06035 14.6961 5.33925 2.61146
5 1 6.40695 18.3932 5.33925 -1.4252
6 1 8.06035 16.9144 7.15047 -3.44101
7 1 5.58024 18.0235 8.05608 -3.3883
9 1 5.58024 15.8052 6.24486 -3.3414
85 1 9.92043 17.7462 4.93365 -1.79041
2 1 13.0206 14.6961 5.33925 2.61146
3 1 10.5405 15.8052 6.24486 -3.3414
4 1 13.0206 16.9144 7.15047 -3.44101
13 1 10.5405 18.0235 8.05608 -3.3883
14 1 11.3672 18.3932 5.33925 -1.4252
71 1 14.8807 17.7462 4.93365 -1.79041
8 2 8.06035 19.1326 8.96168 -3.31859
15 1 8.88705 19.5023 6.24486 -2.73199
34 1 8.88705 21.7206 8.05608 -3.37837
10 2 13.0206 19.1326 8.96168 -3.31859
16 1 11.3672 20.6115 7.15047 -3.28682
18 1 13.8473 21.7206 8.05608 -3.37837
20 1 13.8473 19.5023 6.24486 -2.73199
31 2 11.3672 22.8298 8.96168 -3.336
44 1 12.1939 23.1995 6.24486 -3.07122
17 1 16.3274 20.6115 7.15047 -3.28682
19 2 16.3274 22.8298 8.96168 -3.336
22 1 17.1541 23.1995 6.24486 -3.07122
36 1 9.71376 24.3086 7.15047 -3.42705
53 2 9.71376 26.5269 8.96168 -3.31651
41 1 14.674 24.3086 7.15047 -3.42705
42 1 12.1939 25.4177 8.05608 -3.35739
43 2 14.674 26.5269 8.96168 -3.31651
46 1 17.1541 25.4177 8.05608 -3.35739
26 2 15.5007 20.2418 9.86729 -3.30161
32 2 8.88705 23.9389 9.86729 -3.30513
52 1 8.88705 26.1572 11.6785 -3.35739
33 2 11.3672 25.048 10.7729 -3.31651
38 1 13.8473 26.1572 11.6785 -3.35739
40 2 13.8473 23.9389 9.86729 -3.30513
49 1 11.3672 27.2663 12.5841 -3.42705
60 2 12.1939 27.636 9.86729 -3.30513
37 2 16.3274 25.048 10.7729 -3.31651
39 1 16.3274 27.2663 12.5841 -3.42705
45 2 17.1541 27.636 9.86729 -3.30513
50 1 8.88705 28.3755 13.4897 -3.07122
54 2 9.71376 28.7452 10.7729 -3.336
63 1 9.71376 30.9634 12.5841 -3.28682
11 2 15.5007 31.3332 9.86729 -3.30161
23 2 13.0206 32.4423 10.7729 -3.31859
56 1 13.8473 28.3755 13.4897 -3.07122
57 2 14.674 28.7452 10.7729 -3.336
58 1 12.1939 29.8543 11.6785 -3.37837
59 1 14.674 30.9634 12.5841 -3.28682
66 1 12.1939 32.0726 13.4897 -2.73199
12 2 17.9808 32.4423 10.7729 -3.31859
61 1 17.1541 32.0726 13.4897 -2.73199
62 1 17.1541 29.8543 11.6785 -3.37837
25 1 13.0206 34.6606 12.5841 -3.44101
28 1 15.5007 35.7697 13.4897 -3.3414
30 1 15.5007 33.5514 11.6785 -3.3883
47 1 13.0206 36.8788 14.3953 2.61146
65 1 14.674 33.1817 14.3953 -1.4252
24 1 20.4609 33.5514 11.6785 -3.3883
27 1 17.9808 34.6606 12.5841 -3.44101
29 1 17.9808 36.8788 14.3953 2.61146
48 1 20.4609 35.7697 13.4897 -3.3414
64 1 19.6342 33.1817 14.3953 -1.4252
117 1 16.1207 33.8287 14.8009 -1.79041
115 1 12.8139 37.5258 14.8009 2.64385
127 1 14.4673 41.223 14.8009 -2.36525
51 1 16.3274 40.576 14.3953 -2.24733
129 1 17.7741 37.5258 14.8009 2.64385
140 1 19.4275 41.223 14.8009 -2.36525
55 1 21.2876 40.576 14.3953 -2.24733
135 1 11.9872 31.2407 15.2065 -2.40583
139 1 16.9474 31.2407 15.2065 -2.40583
107 1 11.1605 33.8287 14.8009 -1.79041
111 1 13.6406 34.9379 15.2065 -2.8557
112 1 13.6406 37.1561 17.0178 -3.27301
114 1 11.1605 36.047 16.1122 -3.31617
113 1 16.1207 36.047 16.1122 -3.31617
116 1 18.6008 34.9379 15.2065 -2.8557
120 1 18.6008 37.1561 17.0178 -3.27301
110 1 11.1605 38.2653 17.9234 -3.35162
118 2 13.6406 39.3744 18.829 -3.32498
119 1 12.8139 41.9624 17.9234 -3.35382
123 1 15.294 38.635 15.2065 -3.21322
124 1 15.294 40.8533 17.0178 -3.307
126 1 12.8139 39.7441 16.1122 -3.25886
121 2 18.6008 39.3744 18.829 -3.32498
122 1 16.1207 38.2653 17.9234 -3.35162
125 1 17.7741 39.7441 16.1122 -3.25886
128 1 20.2542 38.635 15.2065 -3.21322
132 1 20.2542 40.8533 17.0178 -3.307
134 1 17.7741 41.9624 17.9234 -3.35382
130 2 15.294 43.0715 18.829 -3.3517
131 1 14.4673 45.6595 17.9234 -3.37274
138 1 14.4673 43.4412 16.1122 -2.75285
133 2 20.2542 43.0715 18.829 -3.3517
136 1 16.9474 44.5504 17.0178 -3.3089
137 1 19.4275 43.4412 16.1122 -2.75285
141 2 16.9474 46.7687 18.829 -3.34393
144 1 19.4275 45.6595 17.9234 -3.37274
142 1 21.9076 44.5504 17.0178 -3.3089
143 2 21.9076 46.7687 18.829 -3.34393
