LAMMPS (29 Aug 2024 - Update 2)
#---------------------------------------------------------------------------------------------------
# Initilise important features of simulation
#---------------------------------------------------------------------------------------------------
units 		metal	# Use metals units (Ang, ps, eV, bar, etc.)
dimension 	3		# Run the simulation in three dimensions
boundary 	p p p	# Use periodic boundaries in all three dimensions
atom_style 	atomic	#
#box tilt large		# Allow larger than normal tilt factors

variable T_start equal 600
variable T_end equal 200
variable tstep equal 0.002
timestep ${tstep}
timestep 0.002

read_data   lammps.txt	# Read in atom coordinates from a file
Reading data file ...
  triclinic box = (0 0 0) to (9.9204335 11.091382 19.734581) with tilt (4.9602167 8.6803793 34.937853)
WARNING: Triclinic box skew is large. LAMMPS will run inefficiently. (src/domain.cpp:221)
  1 by 1 by 1 MPI processor grid
  reading atoms ...
  144 atoms
  read_data CPU = 0.001 seconds

#---------------------------------------------------------------------------------------------------
# Define how the forces between the atoms will be modelled
#---------------------------------------------------------------------------------------------------
pair_style eam/alloy
pair_coeff * * Zope-Ti-Al-2003.eam.alloy.txt Al Al

#---------------------------------------------------------------------------------------------------
# Set behaviour of simulation
#---------------------------------------------------------------------------------------------------
group g_fixed type 2
36 atoms in group g_fixed
group g_other type 1
108 atoms in group g_other
fix f_freeze g_fixed setforce 0.0 0.0 0.0 	# Hold atoms of type 2 fixed in place
#fix f_constrain g_other setforce 0.0 0.0 NULL 	# All atoms of type 1 to move only in z direction

#---------------------------------------------------------------------------------------------------
# Specify what information to write out
#---------------------------------------------------------------------------------------------------
thermo_style custom step atoms temp pe ke etotal fmax
thermo_modify format 6 %20.10f
thermo 1000

#compute statom all stress/atom NULL
compute peatom all pe/atom
dump 1 all custom 100000 dump.* id type x y z c_peatom
dump_modify 1 first yes


#---------------------------------------------------------------------------------------------------
# Initial relaxation
#---------------------------------------------------------------------------------------------------
velocity all set 0.0 0.0 0.0

min_style 	cg
min_modify dmax 0.1
minimize 	0.0 1.0e-6 10000 100000
Neighbor list info ...
  update: every = 1 steps, delay = 0 steps, check = yes
  max neighbors/atom: 2000, page size: 100000
  master list distance cutoff = 8.724884
  ghost atom cutoff = 8.724884
  binsize = 4.362442, bins = 6 11 5
  1 neighbor lists, perpetual/occasional/extra = 1 0 0
  (1) pair eam/alloy, perpetual
      attributes: half, newton on
      pair build: half/bin/atomonly/newton/tri
      stencil: half/bin/3d/tri
      bin: standard
Per MPI rank memory allocation (min/avg/max) = 4.72 | 4.72 | 4.72 Mbytes
   Step        Atoms         Temp          PotEng         KinEng         TotEng          Fmax     
         0         144   0             -415.33987      0                  -415.3398695005  4.9059016    
        50         144   0             -465.83251      0                  -465.8325063404  1.3292426e-07
Loop time of 0.0100219 on 1 procs for 50 steps with 144 atoms

98.6% CPU use with 1 MPI tasks x no OpenMP threads

Minimization stats:
  Stopping criterion = force tolerance
  Energy initial, next-to-last, final = 
     -415.339869500496  -465.832506340377  -465.832506340378
  Force two-norm initial, final = 32.624339 7.7527718e-07
  Force max component initial, final = 4.9059016 1.3292426e-07
  Final line search alpha, max atom move = 1 1.3292426e-07
  Iterations, force evaluations = 50 93

MPI task timing breakdown:
Section |  min time  |  avg time  |  max time  |%varavg| %total
---------------------------------------------------------------
Pair    | 0.0090212  | 0.0090212  | 0.0090212  |   0.0 | 90.02
Neigh   | 0          | 0          | 0          |   0.0 |  0.00
Comm    | 0.00053234 | 0.00053234 | 0.00053234 |   0.0 |  5.31
Output  | 0          | 0          | 0          |   0.0 |  0.00
Modify  | 1.4624e-05 | 1.4624e-05 | 1.4624e-05 |   0.0 |  0.15
Other   |            | 0.0004537  |            |       |  4.53

Nlocal:            144 ave         144 max         144 min
Histogram: 1 0 0 0 0 0 0 0 0 0
Nghost:           3360 ave        3360 max        3360 min
Histogram: 1 0 0 0 0 0 0 0 0 0
Neighs:          13604 ave       13604 max       13604 min
Histogram: 1 0 0 0 0 0 0 0 0 0

Total # of neighbors = 13604
Ave neighs/atom = 94.472222
Neighbor list builds = 0
Dangerous builds = 0
#---------------------------------------------------------------------------------------------------
# Anneal boundary structures
#---------------------------------------------------------------------------------------------------
reset_timestep 100000
fix md g_other nvt temp ${T_start} ${T_end} $(100.0*v_tstep)
fix md g_other nvt temp 600 ${T_end} $(100.0*v_tstep)
fix md g_other nvt temp 600 200 $(100.0*v_tstep)
fix md g_other nvt temp 600 200 0.2000000000000000111

velocity all create ${T_start} 4928459 rot yes mom yes dist gaussian
velocity all create 600 4928459 rot yes mom yes dist gaussian
run 10000
Per MPI rank memory allocation (min/avg/max) = 4.976 | 4.976 | 4.976 Mbytes
   Step        Atoms         Temp          PotEng         KinEng         TotEng          Fmax     
    100000         144   600           -465.83251      11.09052           -454.7419858994  1.3292425e-07
    101000         144   607.20807     -458.44691      11.223756          -447.2231544374  1.392733     
    102000         144   560.56867     -457.39632      10.361664          -447.0346543516  1.4357832    
    103000         144   536.44834     -458.35068      9.9158188          -448.4348640211  1.2969448    
    104000         144   569.53295     -459.35883      10.527361          -448.8314694650  1.5601642    
    105000         144   472.73117     -459.88981      8.7380578          -451.1517522337  1.4430483    
    106000         144   456.86978     -460.76077      8.4448728          -452.3159019298  1.3081232    
    107000         144   421.13307     -461.52258      7.7843082          -453.7382736763  1.0436581    
    108000         144   392.82465     -461.01197      7.2610496          -453.7509200832  1.3376986    
    109000         144   379.47397     -462.89198      7.0142731          -455.8777019096  1.0892343    
    110000         144   346.282       -463.08606      6.4007461          -456.6853139171  1.0813144    
Loop time of 0.9787 on 1 procs for 10000 steps with 144 atoms

Performance: 1765.607 ns/day, 0.014 hours/ns, 10217.632 timesteps/s, 1.471 Matom-step/s
99.2% CPU use with 1 MPI tasks x no OpenMP threads

MPI task timing breakdown:
Section |  min time  |  avg time  |  max time  |%varavg| %total
---------------------------------------------------------------
Pair    | 0.89305    | 0.89305    | 0.89305    |   0.0 | 91.25
Neigh   | 0.0041693  | 0.0041693  | 0.0041693  |   0.0 |  0.43
Comm    | 0.057625   | 0.057625   | 0.057625   |   0.0 |  5.89
Output  | 8.5165e-05 | 8.5165e-05 | 8.5165e-05 |   0.0 |  0.01
Modify  | 0.010881   | 0.010881   | 0.010881   |   0.0 |  1.11
Other   |            | 0.01289    |            |       |  1.32

Nlocal:            144 ave         144 max         144 min
Histogram: 1 0 0 0 0 0 0 0 0 0
Nghost:           3308 ave        3308 max        3308 min
Histogram: 1 0 0 0 0 0 0 0 0 0
Neighs:          13129 ave       13129 max       13129 min
Histogram: 1 0 0 0 0 0 0 0 0 0

Total # of neighbors = 13129
Ave neighs/atom = 91.173611
Neighbor list builds = 8
Dangerous builds = 0
unfix md

#---------------------------------------------------------------------------------------------------
# Final relaxation
#---------------------------------------------------------------------------------------------------
velocity all set 0.0 0.0 0.0

min_style 	cg
min_modify dmax 0.1
minimize 	0.0 1.0e-6 10000 100000
Per MPI rank memory allocation (min/avg/max) = 6.101 | 6.101 | 6.101 Mbytes
   Step        Atoms         Temp          PotEng         KinEng         TotEng          Fmax     
    110000         144   0             -463.08606      0                  -463.0860599737  1.0813144    
    110053         144   0             -465.83251      0                  -465.8325063404  2.0664762e-07
Loop time of 0.0122455 on 1 procs for 53 steps with 144 atoms

97.1% CPU use with 1 MPI tasks x no OpenMP threads

Minimization stats:
  Stopping criterion = force tolerance
  Energy initial, next-to-last, final = 
      -463.08605997368  -465.832506340376  -465.832506340375
  Force two-norm initial, final = 5.4368814 9.3642083e-07
  Force max component initial, final = 1.0813144 2.0664762e-07
  Final line search alpha, max atom move = 1 2.0664762e-07
  Iterations, force evaluations = 53 104

MPI task timing breakdown:
Section |  min time  |  avg time  |  max time  |%varavg| %total
---------------------------------------------------------------
Pair    | 0.01096    | 0.01096    | 0.01096    |   0.0 | 89.50
Neigh   | 0          | 0          | 0          |   0.0 |  0.00
Comm    | 0.00059106 | 0.00059106 | 0.00059106 |   0.0 |  4.83
Output  | 0          | 0          | 0          |   0.0 |  0.00
Modify  | 1.704e-05  | 1.704e-05  | 1.704e-05  |   0.0 |  0.14
Other   |            | 0.0006776  |            |       |  5.53

Nlocal:            144 ave         144 max         144 min
Histogram: 1 0 0 0 0 0 0 0 0 0
Nghost:           3330 ave        3330 max        3330 min
Histogram: 1 0 0 0 0 0 0 0 0 0
Neighs:          13130 ave       13130 max       13130 min
Histogram: 1 0 0 0 0 0 0 0 0 0

Total # of neighbors = 13130
Ave neighs/atom = 91.180556
Neighbor list builds = 0
Dangerous builds = 0

Total wall time: 0:00:01
