LAMMPS (29 Aug 2024 - Update 2)
#---------------------------------------------------------------------------------------------------
# Initilise important features of simulation
#---------------------------------------------------------------------------------------------------
units 		metal	# Use metals units (Ang, ps, eV, bar, etc.)
dimension 	3		# Run the simulation in three dimensions
boundary 	p p p	# Use periodic boundaries in all three dimensions
atom_style 	atomic	#
#box tilt large		# Allow larger than normal tilt factors

variable T_start equal 600
variable T_end equal 200
variable tstep equal 0.002
timestep ${tstep}
timestep 0.002

read_data   lammps.txt	# Read in atom coordinates from a file
Reading data file ...
  triclinic box = (0 0 0) to (9.9204335 11.091382 20.734581) with tilt (4.9602167 25.421111 41.869966)
WARNING: Triclinic box skew is large. LAMMPS will run inefficiently. (src/domain.cpp:221)
  1 by 1 by 1 MPI processor grid
  reading atoms ...
  144 atoms
  read_data CPU = 0.001 seconds

#---------------------------------------------------------------------------------------------------
# Define how the forces between the atoms will be modelled
#---------------------------------------------------------------------------------------------------
pair_style eam/alloy
pair_coeff * * Zope-Ti-Al-2003.eam.alloy.txt Al Al

#---------------------------------------------------------------------------------------------------
# Set behaviour of simulation
#---------------------------------------------------------------------------------------------------
group g_fixed type 2
36 atoms in group g_fixed
group g_other type 1
108 atoms in group g_other
fix f_freeze g_fixed setforce 0.0 0.0 0.0 	# Hold atoms of type 2 fixed in place
#fix f_constrain g_other setforce 0.0 0.0 NULL 	# All atoms of type 1 to move only in z direction

#---------------------------------------------------------------------------------------------------
# Specify what information to write out
#---------------------------------------------------------------------------------------------------
thermo_style custom step atoms temp pe ke etotal fmax
thermo_modify format 6 %20.10f
thermo 1000

#compute statom all stress/atom NULL
compute peatom all pe/atom
dump 1 all custom 100000 dump.* id type x y z c_peatom
dump_modify 1 first yes


#---------------------------------------------------------------------------------------------------
# Initial relaxation
#---------------------------------------------------------------------------------------------------
velocity all set 0.0 0.0 0.0

min_style 	cg
min_modify dmax 0.1
minimize 	0.0 1.0e-6 10000 100000
Neighbor list info ...
  update: every = 1 steps, delay = 0 steps, check = yes
  max neighbors/atom: 2000, page size: 100000
  master list distance cutoff = 8.724884
  ghost atom cutoff = 8.724884
  binsize = 4.362442, bins = 10 13 5
  1 neighbor lists, perpetual/occasional/extra = 1 0 0
  (1) pair eam/alloy, perpetual
      attributes: half, newton on
      pair build: half/bin/atomonly/newton/tri
      stencil: half/bin/3d/tri
      bin: standard
Per MPI rank memory allocation (min/avg/max) = 4.741 | 4.741 | 4.741 Mbytes
   Step        Atoms         Temp          PotEng         KinEng         TotEng          Fmax     
         0         144   0             -450.63005      0                  -450.6300539103  3.9520609    
        46         144   0             -473.99169      0                  -473.9916862480  1.3857253e-07
Loop time of 0.00865346 on 1 procs for 46 steps with 144 atoms

97.1% CPU use with 1 MPI tasks x no OpenMP threads

Minimization stats:
  Stopping criterion = force tolerance
  Energy initial, next-to-last, final = 
     -450.630053910273  -473.991686248001  -473.991686247999
  Force two-norm initial, final = 20.935186 8.6830356e-07
  Force max component initial, final = 3.9520609 1.3857253e-07
  Final line search alpha, max atom move = 1 1.3857253e-07
  Iterations, force evaluations = 46 85

MPI task timing breakdown:
Section |  min time  |  avg time  |  max time  |%varavg| %total
---------------------------------------------------------------
Pair    | 0.007601   | 0.007601   | 0.007601   |   0.0 | 87.84
Neigh   | 0          | 0          | 0          |   0.0 |  0.00
Comm    | 0.00050913 | 0.00050913 | 0.00050913 |   0.0 |  5.88
Output  | 0          | 0          | 0          |   0.0 |  0.00
Modify  | 1.2837e-05 | 1.2837e-05 | 1.2837e-05 |   0.0 |  0.15
Other   |            | 0.0005304  |            |       |  6.13

Nlocal:            144 ave         144 max         144 min
Histogram: 1 0 0 0 0 0 0 0 0 0
Nghost:           3582 ave        3582 max        3582 min
Histogram: 1 0 0 0 0 0 0 0 0 0
Neighs:          12844 ave       12844 max       12844 min
Histogram: 1 0 0 0 0 0 0 0 0 0

Total # of neighbors = 12844
Ave neighs/atom = 89.194444
Neighbor list builds = 0
Dangerous builds = 0
#---------------------------------------------------------------------------------------------------
# Anneal boundary structures
#---------------------------------------------------------------------------------------------------
reset_timestep 100000
fix md g_other nvt temp ${T_start} ${T_end} $(100.0*v_tstep)
fix md g_other nvt temp 600 ${T_end} $(100.0*v_tstep)
fix md g_other nvt temp 600 200 $(100.0*v_tstep)
fix md g_other nvt temp 600 200 0.2000000000000000111

velocity all create ${T_start} 4928459 rot yes mom yes dist gaussian
velocity all create 600 4928459 rot yes mom yes dist gaussian
run 10000
Per MPI rank memory allocation (min/avg/max) = 4.997 | 4.997 | 4.997 Mbytes
   Step        Atoms         Temp          PotEng         KinEng         TotEng          Fmax     
    100000         144   600           -473.99169      11.09052           -462.9011658070  1.3857254e-07
    101000         144   587.3447      -466.4079       10.856597          -455.5513056219  1.7109473    
    102000         144   602.46555     -464.72337      11.136094          -453.5872756494  1.6592469    
    103000         144   532.44556     -467.64632      9.8418306          -457.8044936221  1.4031263    
    104000         144   498.17762     -467.65351      9.2084151          -458.4450917766  1.568156     
    105000         144   473.00892     -468.06244      8.7431918          -459.3192480365  1.2373323    
    106000         144   408.25084     -468.44635      7.5461905          -460.9001567202  1.3116599    
    107000         144   410.64271     -469.68084      7.5904022          -462.0904423333  0.99249488   
    108000         144   419.07319     -469.73591      7.7462331          -461.9896721038  1.1970359    
    109000         144   360.99592     -470.43817      6.6727211          -463.7654491809  1.1761764    
    110000         144   335.6506      -471.13453      6.204233           -464.9303010203  0.80902835   
Loop time of 0.951077 on 1 procs for 10000 steps with 144 atoms

Performance: 1816.888 ns/day, 0.013 hours/ns, 10514.399 timesteps/s, 1.514 Matom-step/s
99.8% CPU use with 1 MPI tasks x no OpenMP threads

MPI task timing breakdown:
Section |  min time  |  avg time  |  max time  |%varavg| %total
---------------------------------------------------------------
Pair    | 0.85582    | 0.85582    | 0.85582    |   0.0 | 89.98
Neigh   | 0.011057   | 0.011057   | 0.011057   |   0.0 |  1.16
Comm    | 0.060701   | 0.060701   | 0.060701   |   0.0 |  6.38
Output  | 4.5791e-05 | 4.5791e-05 | 4.5791e-05 |   0.0 |  0.00
Modify  | 0.010935   | 0.010935   | 0.010935   |   0.0 |  1.15
Other   |            | 0.01252    |            |       |  1.32

Nlocal:            144 ave         144 max         144 min
Histogram: 1 0 0 0 0 0 0 0 0 0
Nghost:           3567 ave        3567 max        3567 min
Histogram: 1 0 0 0 0 0 0 0 0 0
Neighs:          12592 ave       12592 max       12592 min
Histogram: 1 0 0 0 0 0 0 0 0 0

Total # of neighbors = 12592
Ave neighs/atom = 87.444444
Neighbor list builds = 23
Dangerous builds = 0
unfix md

#---------------------------------------------------------------------------------------------------
# Final relaxation
#---------------------------------------------------------------------------------------------------
velocity all set 0.0 0.0 0.0

min_style 	cg
min_modify dmax 0.1
minimize 	0.0 1.0e-6 10000 100000
Per MPI rank memory allocation (min/avg/max) = 6.122 | 6.122 | 6.122 Mbytes
   Step        Atoms         Temp          PotEng         KinEng         TotEng          Fmax     
    110000         144   0             -471.13453      0                  -471.1345340620  0.80902835   
    110050         144   0             -474.32181      0                  -474.3218137273  1.658368e-07 
Loop time of 0.0127337 on 1 procs for 50 steps with 144 atoms

80.2% CPU use with 1 MPI tasks x no OpenMP threads

Minimization stats:
  Stopping criterion = force tolerance
  Energy initial, next-to-last, final = 
      -471.13453406205  -474.321813727346  -474.321813727345
  Force two-norm initial, final = 5.7313756 9.6655803e-07
  Force max component initial, final = 0.80902835 1.658368e-07
  Final line search alpha, max atom move = 1 1.658368e-07
  Iterations, force evaluations = 50 99

MPI task timing breakdown:
Section |  min time  |  avg time  |  max time  |%varavg| %total
---------------------------------------------------------------
Pair    | 0.0092868  | 0.0092868  | 0.0092868  |   0.0 | 72.93
Neigh   | 0          | 0          | 0          |   0.0 |  0.00
Comm    | 0.00059346 | 0.00059346 | 0.00059346 |   0.0 |  4.66
Output  | 0          | 0          | 0          |   0.0 |  0.00
Modify  | 1.5996e-05 | 1.5996e-05 | 1.5996e-05 |   0.0 |  0.13
Other   |            | 0.002837   |            |       | 22.28

Nlocal:            144 ave         144 max         144 min
Histogram: 1 0 0 0 0 0 0 0 0 0
Nghost:           3527 ave        3527 max        3527 min
Histogram: 1 0 0 0 0 0 0 0 0 0
Neighs:          12638 ave       12638 max       12638 min
Histogram: 1 0 0 0 0 0 0 0 0 0

Total # of neighbors = 12638
Ave neighs/atom = 87.763889
Neighbor list builds = 0
Dangerous builds = 0

Total wall time: 0:00:00
