#Lammps coordinate file for CSL - Axis: [1 1 1]  Angle: (1, 3) -> 59.99999999999999  Plane indices: [0 1 1]  z-position: [6.4336451853244885 19.300935555973464]  Repeats: 1 1 (3, 3) (black, white)  Fixed: 2.228  Boundary equiv: True
144 atoms

2 atom types

0.0 9.920433458271871 xlo xhi
0.0 11.091381789479609 ylo yhi
0.0 25.734580741297954 zlo zhi
4.9602167291359365 26.661164919105666 44.642811702655436 xy xz yz

Atoms

1 1 15.810690824120798 16.775714956587912 8.339252716211904
2 1 20.77090755325673 16.77571495658791 8.339252716211904
3 1 18.290799188688766 17.88485313553587 9.24486024709932
4 1 20.770907553256734 18.993991314483832 10.150467777986734
5 1 24.077718706014025 20.47284221974778 8.339252716211904
6 1 15.810690824120798 18.993991314483832 10.150467777986734
7 1 13.330582459552831 20.103129493431794 11.05607530887415
8 2 15.810690824120798 21.212267672379753 11.961682839761563
9 1 13.330582459552831 17.88485313553587 9.244860247099318
10 2 20.770907553256734 21.212267672379753 11.961682839761563
11 2 18.290799188688766 22.321405851327714 12.867290370648979
12 2 20.770907553256734 23.430544030275676 13.772897901536393
13 1 18.290799188688766 20.103129493431794 11.05607530887415
14 1 19.11750197687809 20.47284221974778 8.339252716211904
15 1 16.63739361231012 21.58198039869574 9.244860247099318
16 1 19.11750197687809 22.691118577643703 10.150467777986734
17 1 24.077718706014025 22.6911185776437 10.150467777986734
18 1 21.597610341446057 23.800256756591665 11.05607530887415
19 2 24.077718706014025 24.909394935539623 11.961682839761563
20 1 21.597610341446057 21.58198039869574 9.24486024709932
21 1 22.42431312963538 24.16996948290765 8.339252716211902
22 1 24.904421494203348 25.279107661855612 9.244860247099318
23 2 15.8106908241208 23.430544030275676 13.772897901536393
24 1 13.330582459552833 24.53968220922364 14.678505432423808
25 1 15.8106908241208 25.6488203881716 15.584112963311222
26 2 13.330582459552833 22.321405851327718 12.867290370648979
27 1 20.770907553256734 25.6488203881716 15.584112963311222
28 1 18.290799188688766 26.75795856711956 16.489720494198636
29 1 20.770907553256734 27.86709674606752 17.39532802508605
30 1 18.290799188688766 24.53968220922364 14.678505432423808
31 2 19.11750197687809 24.909394935539623 11.961682839761563
32 2 16.63739361231012 26.018533114487585 12.867290370648979
33 2 19.11750197687809 27.127671293435547 13.772897901536393
34 1 16.63739361231012 23.800256756591665 11.05607530887415
35 1 17.464096400499443 24.16996948290765 8.339252716211902
36 1 17.464096400499443 26.388245840803574 10.150467777986734
37 2 24.077718706014025 27.127671293435547 13.772897901536393
38 1 21.597610341446057 28.23680947238351 14.678505432423808
39 1 24.077718706014025 29.34594765133147 15.584112963311224
40 2 21.597610341446057 26.018533114487585 12.867290370648979
41 1 22.42431312963538 26.38824584080357 10.150467777986734
42 1 19.94420476506741 27.497384019751536 11.05607530887415
43 2 22.42431312963538 28.606522198699494 11.961682839761563
44 1 19.94420476506741 25.279107661855612 9.244860247099318
45 2 24.904421494203348 29.715660377647456 12.867290370648977
46 1 24.904421494203348 27.497384019751532 11.05607530887415
47 1 15.810690824120801 27.867096746067524 17.39532802508605
48 1 13.330582459552833 26.757958567119562 16.489720494198636
49 1 19.11750197687809 29.34594765133147 15.584112963311222
50 1 16.637393612310124 30.45508583027943 16.489720494198636
51 1 19.11750197687809 31.56422400922739 17.39532802508605
52 1 16.637393612310124 28.23680947238351 14.678505432423808
53 2 17.464096400499443 28.606522198699494 11.961682839761563
54 2 17.464096400499443 30.824798556595418 13.772897901536393
55 1 24.077718706014025 31.56422400922739 17.39532802508605
56 1 21.597610341446057 30.45508583027943 16.48972049419864
57 2 22.42431312963538 30.824798556595418 13.772897901536393
58 1 19.94420476506741 31.93393673554338 14.678505432423808
59 1 22.42431312963538 33.04307491449134 15.584112963311224
60 2 19.94420476506741 29.715660377647456 12.867290370648979
61 1 24.904421494203348 34.1522130934393 16.489720494198636
62 1 24.904421494203344 31.933936735543377 14.678505432423808
63 1 17.464096400499443 33.04307491449134 15.58411296331122
64 1 17.464096400499443 35.26135127238726 17.39532802508605
65 1 22.42431312963538 35.26135127238726 17.395328025086048
66 1 19.94420476506741 34.1522130934393 16.489720494198636
67 1 0.0 2.218276357895922 1.8112150617748295
68 2 2.4801083645679682 1.109138178947961 0.9056075308874147
69 2 4.9602167291359365 0.0 -2.220446049250313e-16
70 2 0.0 0.0 0.0
71 1 0.0 6.654829073687768 6.4336451853244885
72 1 2.4801083645679682 3.327414536843884 2.7168225926622442
73 1 2.4801083645679682 5.545690894739806 4.528037654437075
74 1 4.9602167291359365 4.436552715791845 3.622430123549659
75 1 0.0 4.436552715791845 3.622430123549659
76 1 1.6534055763786455 5.915403621055794 1.811215061774829
77 2 7.440325093703903 1.109138178947961 0.9056075308874147
78 1 7.440325093703903 3.327414536843884 2.7168225926622442
79 1 4.9602167291359365 2.218276357895922 1.8112150617748293
80 2 4.133513940946614 4.806265442107832 0.9056075308874143
81 2 6.61362230551458 3.697127263159871 -4.440892098500626e-16
82 2 1.6534055763786455 3.697127263159871 -2.220446049250313e-16
83 1 1.6534055763786455 10.351956336847639 6.4336451853244885
84 1 7.440325093703903 5.545690894739806 4.528037654437075
85 1 4.9602167291359365 6.654829073687768 6.4336451853244885
86 1 4.133513940946614 7.024541800003755 2.716822592662244
87 1 4.133513940946614 9.242818157899677 4.528037654437075
88 1 6.61362230551458 8.133679978951715 3.6224301235496585
89 1 1.6534055763786455 8.133679978951717 3.6224301235496585
90 1 3.306811152757291 9.612530884215664 1.8112150617748288
91 2 9.093730670082548 4.806265442107832 0.9056075308874143
92 1 9.093730670082547 7.024541800003755 2.716822592662244
93 1 6.61362230551458 5.915403621055793 1.8112150617748288
94 2 5.7869195173252574 8.503392705267704 0.9056075308874139
95 2 8.267027881893226 7.394254526319742 -8.881784197001252e-16
96 2 3.306811152757291 7.394254526319742 -8.881784197001252e-16
97 1 3.306811152757291 14.04908360000751 6.4336451853244885
98 1 9.093730670082547 9.242818157899677 4.528037654437075
99 1 6.613622305514581 10.351956336847639 6.4336451853244885
100 1 5.786919517325258 10.721669063163626 2.7168225926622434
101 1 5.786919517325258 12.939945421059548 4.528037654437073
102 1 8.267027881893226 11.830807242111586 3.622430123549658
103 1 3.306811152757291 11.830807242111588 3.622430123549658
104 2 10.747136246461192 8.503392705267704 0.9056075308874139
105 1 10.747136246461192 10.721669063163626 2.7168225926622434
106 1 8.267027881893226 9.612530884215664 1.8112150617748286
107 1 26.66116491910566 37.98798262896767 19.300935555973467
108 1 10.747136246461192 12.939945421059548 4.528037654437073
109 1 8.267027881893226 14.04908360000751 6.4336451853244885
110 1 26.66116491910566 42.42453534475951 23.923365679523123
111 1 29.141273283673627 39.09712080791563 21.20654308686088
112 1 29.141273283673627 41.315397165811554 23.01775814863571
113 1 31.621381648241595 40.20625898686359 22.112150617748295
114 1 26.66116491910566 40.20625898686359 22.112150617748295
115 1 28.314570495484304 41.68510989212754 19.300935555973464
116 1 34.10149001280956 39.09712080791563 21.20654308686088
117 1 31.621381648241595 37.98798262896767 19.300935555973464
118 2 29.141273283673627 43.53367352370748 24.82897321041054
119 1 28.314570495484304 46.12166260791938 23.923365679523123
120 1 34.10149001280956 41.31539716581155 23.017758148635707
121 2 34.10149001280956 43.53367352370748 24.82897321041054
122 1 31.621381648241595 42.42453534475951 23.923365679523126
123 1 30.794678860052272 42.7942480710755 21.20654308686088
124 1 30.794678860052272 45.012524428971425 23.01775814863571
125 1 33.27478722462024 43.90338625002346 22.112150617748295
126 1 28.314570495484304 43.90338625002346 22.112150617748295
127 1 29.96797607186295 45.38223715528741 19.300935555973464
128 1 35.75489558918821 42.7942480710755 21.20654308686088
129 1 33.27478722462024 41.68510989212754 19.300935555973464
130 2 30.794678860052272 47.23080078686735 24.82897321041054
131 1 29.96797607186295 49.818789871079254 23.923365679523123
132 1 35.75489558918821 45.01252442897142 23.017758148635707
133 2 35.75489558918821 47.23080078686735 24.82897321041054
134 1 33.27478722462024 46.12166260791938 23.923365679523126
135 1 32.44808443643092 46.49137533423537 21.20654308686088
136 1 32.44808443643092 48.709651692131295 23.01775814863571
137 1 34.928192800998886 47.60051351318333 22.112150617748295
138 1 29.96797607186295 47.60051351318333 22.112150617748295
139 1 37.408301165566854 46.49137533423537 21.20654308686088
140 1 34.928192800998886 45.38223715528741 19.300935555973464
141 2 32.44808443643092 50.92792805002722 24.82897321041054
142 1 37.408301165566854 48.70965169213129 23.017758148635707
143 2 37.408301165566854 50.92792805002722 24.82897321041054
144 1 34.928192800998886 49.818789871079254 23.923365679523126
