ITEM: TIMESTEP
0
ITEM: NUMBER OF ATOMS
144
ITEM: BOX BOUNDS xy xz yz pp pp pp
0.0000000000000000e+00 2.6041137827963666e+01 4.9602167291359365e+00
0.0000000000000000e+00 4.3256388978970477e+01 1.1160487640555861e+01
0.0000000000000000e+00 2.4734580741297954e+01 3.2165007189490872e+01
ITEM: ATOMS id type x y z c_peatom
69 2 4.96022 0 0 -3.37561
70 2 0 0 0 -3.37561
81 2 6.61362 3.69713 0 -3.37561
82 2 11.5738 3.69713 0 -3.37561
80 2 4.13351 4.80627 0.905608 -3.37634
86 1 4.13351 7.02454 2.71682 -3.34033
87 1 4.13351 9.24282 4.52804 -3.03824
88 1 6.61362 8.13368 3.62243 -3.22205
91 2 9.09373 4.80627 0.905608 -3.37634
92 1 9.09373 7.02454 2.71682 -3.34033
93 1 6.61362 5.9154 1.81122 -3.39192
94 2 5.78692 8.50339 0.905608 -3.37634
95 2 8.26703 7.39425 0 -3.37561
98 1 9.09373 9.24282 4.52804 -3.03824
76 1 11.5738 5.9154 1.81122 -3.39192
89 1 11.5738 8.13368 3.62243 -3.22205
96 2 13.2272 7.39425 0 -3.37561
104 2 10.7471 8.50339 0.905608 -3.37634
68 2 7.44033 12.2005 0.905608 -3.37634
79 1 9.92043 13.3097 1.81122 -3.39155
100 1 5.78692 10.7217 2.71682 -3.33656
101 1 5.78692 12.9399 4.52804 -3.03895
102 1 8.26703 11.8308 3.62243 -3.23973
106 1 8.26703 9.61253 1.81122 -3.39039
67 1 14.8807 13.3097 1.81122 -3.39155
77 2 12.4005 12.2005 0.905608 -3.37634
90 1 13.2272 9.61253 1.81122 -3.39039
103 1 13.2272 11.8308 3.62243 -3.23973
105 1 10.7471 10.7217 2.71682 -3.33656
108 1 10.7471 12.9399 4.52804 -3.03895
72 1 7.44033 14.4188 2.71682 -3.34014
73 1 7.44033 16.6371 4.52804 -3.04656
74 1 9.92043 15.5279 3.62243 -3.23888
75 1 14.8807 15.5279 3.62243 -3.23888
78 1 12.4005 14.4188 2.71682 -3.34014
84 1 12.4005 16.6371 4.52804 -3.04656
1 1 8.06035 10.5368 7.83925 -2.69012
5 1 6.40695 14.2339 7.83925 -2.91286
6 1 8.06035 12.7551 9.65047 -3.36877
9 1 5.58024 11.646 8.74486 -3.22869
99 1 6.61362 10.352 6.18365 -2.55537
109 1 8.26703 14.0491 6.18365 -2.72463
2 1 13.0206 10.5368 7.83925 -2.69012
3 1 10.5405 11.646 8.74486 -3.22869
4 1 13.0206 12.7551 9.65047 -3.36877
14 1 11.3672 14.2339 7.83925 -2.91286
83 1 11.5738 10.352 6.18365 -2.55537
97 1 13.2272 14.0491 6.18365 -2.72463
15 1 8.88705 15.3431 8.74486 -3.21435
17 1 6.40695 16.4522 9.65047 -3.34115
35 1 9.71376 17.9311 7.83925 -1.87473
85 1 9.92043 17.7462 6.18365 -1.68292
16 1 11.3672 16.4522 9.65047 -3.34115
20 1 13.8473 15.3431 8.74486 -3.21435
21 1 14.674 17.9311 7.83925 -1.87473
44 1 12.1939 19.0402 8.74486 -3.19378
71 1 14.8807 17.7462 6.18365 -1.68292
22 1 17.1541 19.0402 8.74486 -3.19378
36 1 9.71376 20.1493 9.65047 -3.37061
41 1 14.674 20.1493 9.65047 -3.37061
7 1 5.58024 13.8642 10.5561 -3.38215
13 1 10.5405 13.8642 10.5561 -3.38215
8 2 8.06035 14.9734 11.4617 -3.37964
34 1 8.88705 17.5614 10.5561 -3.40832
10 2 13.0206 14.9734 11.4617 -3.37964
18 1 13.8473 17.5614 10.5561 -3.40832
31 2 11.3672 18.6705 11.4617 -3.3797
19 2 16.3274 18.6705 11.4617 -3.3797
32 2 8.88705 19.7796 12.3673 -3.37573
52 1 8.88705 21.9979 14.1785 -3.41713
53 2 9.71376 22.3676 11.4617 -3.38303
33 2 11.3672 20.8888 13.2729 -3.38303
38 1 13.8473 21.9979 14.1785 -3.41713
40 2 13.8473 19.7796 12.3673 -3.37573
42 1 12.1939 21.2585 10.5561 -3.41713
43 2 14.674 22.3676 11.4617 -3.38303
60 2 12.1939 23.4768 12.3673 -3.37573
37 2 16.3274 20.8888 13.2729 -3.38303
45 2 17.1541 23.4768 12.3673 -3.37573
46 1 17.1541 21.2585 10.5561 -3.41713
54 2 9.71376 24.5859 13.2729 -3.3797
11 2 15.5007 27.1739 12.3673 -3.37558
23 2 13.0206 28.283 13.2729 -3.37964
57 2 14.674 24.5859 13.2729 -3.3797
58 1 12.1939 25.695 14.1785 -3.40832
12 2 17.9808 28.283 13.2729 -3.37964
26 2 20.4609 27.1739 12.3673 -3.37558
62 1 17.1541 25.695 14.1785 -3.40832
30 1 15.5007 29.3922 14.1785 -3.38215
24 1 20.4609 29.3922 14.1785 -3.38215
49 1 11.3672 23.107 15.0841 -3.37061
39 1 16.3274 23.107 15.0841 -3.37061
50 1 8.88705 24.2162 15.9897 -3.19378
51 1 11.3672 25.3253 16.8953 -1.87473
56 1 13.8473 24.2162 15.9897 -3.19378
59 1 14.674 26.8042 15.0841 -3.34115
66 1 12.1939 27.9133 15.9897 -3.21435
107 1 11.1605 25.5102 18.5509 -1.68292
55 1 16.3274 25.3253 16.8953 -1.87473
61 1 17.1541 27.9133 15.9897 -3.21435
63 1 19.6342 26.8042 15.0841 -3.34115
117 1 16.1207 25.5102 18.5509 -1.68292
25 1 13.0206 30.5013 15.0841 -3.36877
28 1 15.5007 31.6104 15.9897 -3.22869
47 1 13.0206 32.7196 16.8953 -2.69012
65 1 14.674 29.0224 16.8953 -2.91286
115 1 12.8139 29.2073 18.5509 -2.72463
127 1 14.4673 32.9044 18.5509 -2.55537
27 1 17.9808 30.5013 15.0841 -3.36877
29 1 17.9808 32.7196 16.8953 -2.69012
48 1 20.4609 31.6104 15.9897 -3.22869
64 1 19.6342 29.0224 16.8953 -2.91286
129 1 17.7741 29.2073 18.5509 -2.72463
140 1 19.4275 32.9044 18.5509 -2.55537
111 1 13.6406 26.6193 20.2065 -3.04656
114 1 11.1605 27.7285 21.1122 -3.23888
113 1 16.1207 27.7285 21.1122 -3.23888
116 1 18.6008 26.6193 20.2065 -3.04656
110 1 11.1605 29.9467 22.9234 -3.39155
112 1 13.6406 28.8376 22.0178 -3.34014
118 2 13.6406 31.0559 23.829 -3.37634
123 1 15.294 30.3164 20.2065 -3.03895
124 1 15.294 32.5347 22.0178 -3.33656
126 1 12.8139 31.4256 21.1122 -3.23973
120 1 18.6008 28.8376 22.0178 -3.34014
121 2 18.6008 31.0559 23.829 -3.37634
122 1 16.1207 29.9467 22.9234 -3.39155
125 1 17.7741 31.4256 21.1122 -3.23973
128 1 20.2542 30.3164 20.2065 -3.03895
132 1 20.2542 32.5347 22.0178 -3.33656
119 1 12.8139 33.6439 22.9234 -3.39039
130 2 15.294 34.753 23.829 -3.37634
131 1 14.4673 37.341 22.9234 -3.39192
138 1 14.4673 35.1227 21.1122 -3.22205
133 2 20.2542 34.753 23.829 -3.37634
134 1 17.7741 33.6439 22.9234 -3.39039
135 1 16.9474 34.0136 20.2065 -3.03824
136 1 16.9474 36.2318 22.0178 -3.34033
137 1 19.4275 35.1227 21.1122 -3.22205
144 1 19.4275 37.341 22.9234 -3.39192
139 1 21.9076 34.0136 20.2065 -3.03824
142 1 21.9076 36.2318 22.0178 -3.34033
141 2 16.9474 38.4501 23.829 -3.37634
143 2 21.9076 38.4501 23.829 -3.37634
