ITEM: TIMESTEP
100000
ITEM: NUMBER OF ATOMS
144
ITEM: BOX BOUNDS xy xz yz pp pp pp
0.0000000000000000e+00 2.5421110736821674e+01 4.9602167291359365e+00
0.0000000000000000e+00 5.2961348044765145e+01 1.0540460549413869e+01
0.0000000000000000e+00 2.0734580741297954e+01 4.1869966255285533e+01
ITEM: ATOMS id type x y z c_peatom
69 2 4.96022 2.24191e-16 0 -3.35265
70 2 0 0 0 -3.35265
81 2 6.61362 3.69713 0 -3.31983
82 2 11.5738 3.69713 0 -3.31983
80 2 4.13351 4.80627 0.905608 -3.35742
86 1 4.18098 7.01536 2.60739 -3.32607
88 1 6.75706 8.19279 3.46708 -3.33144
91 2 9.09373 4.80627 0.905608 -3.35742
92 1 9.1412 7.01536 2.60739 -3.32607
93 1 6.60547 5.94063 1.69795 -3.3124
94 2 5.78692 8.50339 0.905608 -3.33754
95 2 8.26703 7.39425 0 -3.31983
76 1 11.5657 5.94063 1.69795 -3.3124
89 1 11.7173 8.19279 3.46708 -3.33144
96 2 13.2272 7.39425 0 -3.31983
104 2 10.7471 8.50339 0.905608 -3.33754
87 1 4.34075 9.30437 4.28757 -3.32148
68 2 7.44033 12.2005 0.905608 -3.33745
98 1 9.30096 9.30437 4.28757 -3.32148
100 1 5.84343 10.7397 2.56523 -3.32481
101 1 5.85392 12.9582 4.26172 -3.25705
102 1 8.34652 11.7144 3.33032 -3.22482
106 1 8.29365 9.57976 1.67425 -3.30247
99 1 6.85396 10.4805 5.17993 -3.36134
77 2 12.4005 12.2005 0.905608 -3.33745
90 1 13.2539 9.57976 1.67425 -3.30247
103 1 13.3067 11.7144 3.33032 -3.22482
105 1 10.8036 10.7397 2.56523 -3.32481
108 1 10.8141 12.9582 4.26172 -3.25705
83 1 11.8142 10.4805 5.17993 -3.36134
72 1 7.27783 14.4865 2.56472 -3.29811
73 1 6.77644 16.7281 4.33268 -3.16729
74 1 9.56464 15.5904 3.63849 -3.24331
79 1 9.84226 13.3578 1.73647 -3.35665
109 1 8.35245 13.6882 4.91472 -2.92657
67 1 14.8025 13.3578 1.73647 -3.35665
75 1 14.5249 15.5904 3.63849 -3.24331
78 1 12.238 14.4865 2.56472 -3.29811
84 1 11.7367 16.7281 4.33268 -3.16729
97 1 13.3127 13.6882 4.91472 -2.92657
1 1 7.9401 15.5925 6.34772 -2.98208
9 1 5.45147 16.4316 6.88357 -3.29004
2 1 12.9003 15.5925 6.34772 -2.98208
3 1 10.4117 16.4316 6.88357 -3.29004
6 1 7.84232 17.6667 7.85379 -3.26812
7 1 5.31469 18.6906 8.64784 -3.35953
8 2 7.75034 19.8258 9.46168 -3.31509
15 1 8.67916 20.1546 6.93011 -3.3001
85 1 8.94661 17.9469 5.24577 -3.25235
5 1 6.30526 19.0206 6.08486 -3.3154
4 1 12.8025 17.6667 7.85379 -3.26812
10 2 12.7106 19.8258 9.46168 -3.31509
13 1 10.2749 18.6906 8.64784 -3.35953
14 1 11.2655 19.0206 6.08486 -3.3154
16 1 11.1008 21.2786 7.77897 -3.32111
20 1 13.6394 20.1546 6.93011 -3.3001
71 1 13.9068 17.9469 5.24577 -3.25235
17 1 16.061 21.2786 7.77897 -3.32111
34 1 8.57272 22.4071 8.648 -3.3473
35 1 9.35466 22.5968 6.04751 -3.30829
36 1 9.41327 24.9391 7.69471 -3.33284
18 1 13.5329 22.4071 8.648 -3.3473
21 1 14.3149 22.5968 6.04751 -3.30829
31 2 11.0571 23.523 9.46168 -3.32439
41 1 14.3735 24.9391 7.69471 -3.33284
42 1 11.8793 26.0836 8.71865 -3.29556
44 1 11.8276 23.889 6.88561 -3.31158
19 2 16.0174 23.523 9.46168 -3.32439
22 1 16.7878 23.889 6.88561 -3.31158
46 1 16.8395 26.0836 8.71865 -3.29556
53 2 9.40374 27.2201 9.46168 -3.35687
43 2 14.364 27.2201 9.46168 -3.35687
11 2 10.2304 20.935 10.3673 -3.35894
26 2 15.1907 20.935 10.3673 -3.35894
32 2 8.57704 24.6321 10.3673 -3.34235
33 2 11.0571 25.7412 11.2729 -3.35687
40 2 13.5373 24.6321 10.3673 -3.34235
37 2 16.0174 25.7412 11.2729 -3.35687
50 1 8.63331 29.0724 13.849 -3.31158
52 1 8.58158 26.8777 12.0159 -3.29556
54 2 9.40374 29.4384 11.2729 -3.32439
38 1 13.5418 26.8777 12.0159 -3.29556
49 1 11.0476 28.0222 13.0399 -3.33284
51 1 11.1062 30.3645 14.6871 -3.30829
56 1 13.5935 29.0724 13.849 -3.31158
57 2 14.364 29.4384 11.2729 -3.32439
58 1 11.8882 30.5542 12.0866 -3.3473
60 2 11.8839 28.3292 10.3673 -3.34235
39 1 16.0078 28.0222 13.0399 -3.33284
45 2 16.8441 28.3292 10.3673 -3.34235
55 1 16.0665 30.3645 14.6871 -3.30829
62 1 16.8484 30.5542 12.0866 -3.3473
63 1 9.36006 31.6827 12.9556 -3.32111
23 2 12.7106 33.1355 11.2729 -3.31509
30 1 15.1462 34.2707 12.0867 -3.35953
59 1 14.3203 31.6827 12.9556 -3.32111
65 1 14.1556 33.9408 14.6497 -3.3154
66 1 11.7817 32.8067 13.8045 -3.3001
25 1 12.6186 35.2946 12.8808 -3.26812
107 1 11.5143 35.0144 15.4888 -3.25235
64 1 19.1158 33.9408 14.6497 -3.3154
12 2 17.6708 33.1355 11.2729 -3.31509
24 1 20.1064 34.2707 12.0867 -3.35953
61 1 16.7419 32.8067 13.8045 -3.3001
27 1 17.5788 35.2946 12.8808 -3.26812
117 1 16.4745 35.0144 15.4888 -3.25235
28 1 15.0094 36.5297 13.851 -3.29004
47 1 12.5208 37.3689 14.3869 -2.98208
29 1 17.481 37.3689 14.3869 -2.98208
48 1 19.9696 36.5297 13.851 -3.29004
110 1 10.6186 39.6035 18.9981 -3.35665
111 1 13.6845 36.2332 16.4019 -3.16729
112 1 13.1831 38.4749 18.1699 -3.29811
114 1 10.8963 37.371 17.0961 -3.24331
115 1 12.1084 39.2732 15.8199 -2.92657
113 1 15.8565 37.371 17.0961 -3.24331
116 1 18.6447 36.2332 16.4019 -3.16729
120 1 18.1433 38.4749 18.1699 -3.29811
122 1 15.5788 39.6035 18.9981 -3.35665
129 1 17.0687 39.2732 15.8199 -2.92657
127 1 13.6069 42.4809 15.5547 -3.36134
118 2 13.0206 40.7608 19.829 -3.33745
119 1 12.1672 43.3816 19.0603 -3.30247
123 1 14.607 40.0032 16.4729 -3.25705
124 1 14.6175 42.2217 18.1693 -3.32481
126 1 12.1144 41.2469 17.4043 -3.22482
140 1 18.5671 42.4809 15.5547 -3.36134
121 2 17.9808 40.7608 19.829 -3.33745
125 1 17.0746 41.2469 17.4043 -3.22482
128 1 19.5672 40.0032 16.4729 -3.25705
132 1 19.5777 42.2217 18.1693 -3.32481
134 1 17.1275 43.3816 19.0603 -3.30247
135 1 16.1201 43.657 16.447 -3.32148
139 1 21.0804 43.657 16.447 -3.32148
130 2 14.674 44.458 19.829 -3.33754
131 1 13.8554 47.0207 19.0366 -3.3124
138 1 13.7038 44.7686 17.2675 -3.33144
133 2 19.6342 44.458 19.829 -3.33754
136 1 16.2799 45.946 18.1272 -3.32607
137 1 18.664 44.7686 17.2675 -3.33144
141 2 16.3274 48.1551 19.829 -3.35742
144 1 18.8156 47.0207 19.0366 -3.3124
142 1 21.2401 45.946 18.1272 -3.32607
143 2 21.2876 48.1551 19.829 -3.35742
