ITEM: TIMESTEP
110052
ITEM: NUMBER OF ATOMS
144
ITEM: BOX BOUNDS xy xz yz pp pp pp
0.0000000000000000e+00 2.1700948189969726e+01 4.9602167291359365e+00
0.0000000000000000e+00 5.2961348044765145e+01 6.8202980025619180e+00
0.0000000000000000e+00 2.1734580741297954e+01 4.1869966255285533e+01
ITEM: ATOMS id type x y z c_peatom
69 2 4.96022 3.74798e-16 0 -3.35311
70 2 0 0 0 -3.35083
81 2 6.61362 3.69713 0 -3.35331
82 2 11.5738 3.69713 0 -3.36513
80 2 4.13351 4.80627 0.905608 -3.35676
86 1 4.02147 7.05809 2.66772 -3.36155
88 1 6.38956 8.19708 3.63445 -3.34439
91 2 9.09373 4.80627 0.905608 -3.35989
92 1 8.96952 7.06276 2.65582 -3.36728
93 1 6.56807 5.9365 1.78527 -3.35854
94 2 5.78692 8.50339 0.905608 -3.36335
95 2 8.26703 7.39425 0 -3.36203
104 2 10.7471 8.50339 0.905608 -3.35151
76 1 11.5233 5.92569 1.75224 -3.36072
89 1 11.3484 8.16435 3.51555 -3.31578
96 2 13.2272 7.39425 0 -3.35737
87 1 3.70682 9.29194 4.47321 -3.30376
67 1 4.94227 13.3132 1.79568 -3.34739
68 2 7.44033 12.2005 0.905608 -3.34863
98 1 8.69958 9.33437 4.45372 -3.17728
100 1 5.75763 10.7528 2.75343 -3.35975
102 1 8.2777 11.9076 3.59911 -3.32752
106 1 8.22392 9.64047 1.78908 -3.35495
105 1 10.7185 10.7599 2.68787 -3.35398
101 1 5.8395 13.042 4.52508 -3.34494
108 1 10.7999 12.9895 4.54256 -3.36135
103 1 13.2226 11.8796 3.64396 -3.32676
90 1 13.2039 9.64528 1.77578 -3.35088
77 2 12.4005 12.2005 0.905608 -3.35174
75 1 4.92134 15.5822 3.55905 -3.34744
97 1 3.39101 14.1853 5.42288 -3.3459
79 1 9.92203 13.3066 1.77412 -3.34247
72 1 7.42101 14.4069 2.63967 -3.32582
73 1 7.40008 16.5459 4.32683 -3.28744
74 1 9.91326 15.4867 3.52409 -3.32154
85 1 9.89534 17.6083 5.22576 -3.26562
78 1 12.3914 14.4439 2.68896 -3.35145
84 1 12.3589 16.7067 4.4691 -3.33657
5 1 14.7283 17.8484 5.32248 -3.26411
83 1 15.8247 21.4399 5.41501 -3.17914
9 1 3.36918 16.4441 7.22263 -3.33837
109 1 8.35417 14.1468 5.4281 -3.35655
1 1 5.88043 15.3572 6.3127 -3.35991
3 1 8.38655 16.4071 7.24222 -3.37947
6 1 5.85071 17.6277 8.10737 -3.35583
2 1 10.8374 15.2436 6.33443 -3.37061
4 1 10.8506 17.4736 8.16334 -3.31634
7 1 3.38005 18.6871 9.06054 -3.26695
99 1 10.7601 21.5433 5.57487 -3.19576
71 1 7.30868 18.5413 5.96038 -3.12293
8 2 5.89026 19.8258 9.96168 -3.33329
10 2 10.8505 19.8258 9.96168 -3.34175
13 1 8.37022 18.6482 9.09903 -3.34804
14 1 9.66839 19.5016 6.92142 -3.09575
15 1 6.95355 20.4 7.5954 -3.13634
16 1 9.34115 21.4986 8.36423 -3.1548
17 1 14.2152 21.1344 8.069 -3.24253
20 1 12.3596 19.0889 6.3846 -3.23965
31 2 9.19707 23.523 9.96168 -3.32845
34 1 6.72715 22.4785 9.16342 -3.32075
35 1 7.97809 22.7295 6.38556 -3.28342
36 1 7.65456 24.9676 8.16446 -3.34262
42 1 10.0649 26.1043 9.05877 -3.35867
44 1 10.2687 23.8861 7.25825 -3.30909
18 1 11.8069 22.3948 9.04226 -3.29012
19 2 14.1573 23.523 9.96168 -3.34516
21 1 12.9351 22.6994 6.32713 -3.15703
22 1 15.2129 23.7751 7.2712 -3.32449
41 1 12.6148 24.9725 8.16195 -3.34568
46 1 15.0275 26.0522 9.08042 -3.33806
53 2 7.54366 27.2201 9.96168 -3.35244
43 2 12.5039 27.2201 9.96168 -3.35577
11 2 8.37037 20.935 10.8673 -3.38528
26 2 13.3306 20.935 10.8673 -3.35252
32 2 6.71696 24.6321 10.8673 -3.34479
33 2 9.19707 25.7412 11.7729 -3.34568
37 2 14.1573 25.7412 11.7729 -3.36805
40 2 11.6772 24.6321 10.8673 -3.35658
49 1 9.12971 28.0323 13.5546 -3.33411
50 1 6.56286 29.1297 14.4689 -3.34829
51 1 8.92168 30.3198 15.3533 -3.31943
52 1 6.68362 26.8933 12.6496 -3.35565
54 2 7.54366 29.4384 11.7729 -3.33784
58 1 9.98069 30.5854 12.6562 -3.34901
60 2 10.0238 28.3292 10.8673 -3.36667
38 1 11.6671 26.8744 12.676 -3.35173
39 1 14.0865 27.9557 13.5862 -3.35717
45 2 14.984 28.3292 10.8673 -3.33709
55 1 13.8734 30.1883 15.3656 -3.30204
56 1 11.5243 29.1162 14.4651 -3.34538
57 2 12.5039 29.4384 11.7729 -3.35223
62 1 14.9256 30.4649 12.5901 -3.32425
23 2 10.8505 33.1355 11.7729 -3.35097
63 1 7.48589 31.5845 13.4455 -3.30478
66 1 9.93087 32.9563 14.5446 -3.24625
64 1 7.28208 33.6623 14.9721 -3.13733
12 2 15.8107 33.1355 11.7729 -3.38872
30 1 13.3186 34.281 12.7488 -3.34999
59 1 12.3473 31.6733 13.5811 -3.28381
61 1 14.8226 32.5157 14.2245 -3.15481
65 1 14.4767 34.5301 15.6707 -3.12434
140 1 11.1999 31.3854 16.2928 -3.15316
117 1 11.7988 34.9942 16.2426 -3.24003
24 1 18.3039 34.2739 12.5974 -3.32709
115 1 8.36511 38.7299 16.3175 -3.35714
25 1 10.8659 35.408 13.5767 -3.26439
47 1 10.8753 37.6432 15.406 -3.33934
27 1 15.8141 35.4484 13.5387 -3.3381
28 1 13.3152 36.6264 14.4803 -3.32152
29 1 15.7831 37.6809 15.3927 -3.37849
48 1 18.3171 36.441 14.5237 -3.35399
111 1 9.41881 36.2301 17.3015 -3.27127
112 1 9.31915 38.4982 19.0668 -3.34851
107 1 6.9177 35.5004 16.6416 -3.13828
114 1 6.82997 37.5197 18.2675 -3.29143
110 1 6.8271 39.668 19.9801 -3.33199
129 1 13.3273 38.8449 16.2998 -3.36964
113 1 11.7967 37.3699 18.1494 -3.33586
116 1 14.2546 36.4427 17.3808 -3.28418
120 1 14.2482 38.5807 19.0943 -3.3274
122 1 11.7766 39.6385 19.9415 -3.35294
118 2 9.30041 40.7608 20.829 -3.34703
119 1 8.48256 43.3277 19.893 -3.36124
126 1 8.41285 41.0434 18.1 -3.34467
123 1 10.8573 39.9015 17.2128 -3.34399
127 1 11.1815 42.4627 16.2673 -3.27817
124 1 10.9423 42.2067 19.0024 -3.32423
121 2 14.2606 40.7608 20.829 -3.34353
125 1 13.3675 41.1045 18.0814 -3.3581
128 1 15.8117 39.9419 17.204 -3.35515
132 1 15.9043 42.1826 19.0305 -3.32903
134 1 13.4479 43.3158 19.9434 -3.35764
135 1 13.2628 43.7548 17.2016 -3.18671
139 1 18.3166 43.6317 17.0767 -3.19308
138 1 10.4954 44.7967 18.1544 -3.30314
131 1 10.1934 47.0315 19.9593 -3.36161
130 2 10.9538 44.458 20.829 -3.35386
133 2 15.914 44.458 20.829 -3.35964
136 1 12.7956 45.9107 19.1083 -3.3232
137 1 15.4415 44.7478 18.1614 -3.18263
141 2 12.6072 48.1551 20.829 -3.36153
144 1 15.1711 47.024 19.9721 -3.36894
142 1 17.7461 45.8853 19.0111 -3.34939
143 2 17.5674 48.1551 20.829 -3.35667
