ITEM: TIMESTEP
88
ITEM: NUMBER OF ATOMS
144
ITEM: BOX BOUNDS xy xz yz pp pp pp
0.0000000000000000e+00 2.6661164919105659e+01 4.9602167291359365e+00
0.0000000000000000e+00 4.1869966255285533e+01 1.1780514731697853e+01
0.0000000000000000e+00 2.0734580741297954e+01 3.0778584465805924e+01
ITEM: ATOMS id type x y z c_peatom
70 2 0 0 0 -3.32691
82 2 1.65341 3.69713 0 -3.31648
69 2 4.96022 0 0 -3.32691
81 2 6.61362 3.69713 0 -3.31648
80 2 4.13351 4.80627 0.905608 -3.32573
86 1 4.10675 6.73286 2.73504 -3.30245
87 1 3.76792 9.09262 3.82069 -2.98239
88 1 6.51842 7.45799 3.79346 -3.27583
93 1 6.61856 5.82416 1.72572 -3.26818
94 2 5.78692 8.50339 0.905608 -3.3025
95 2 8.26703 7.39425 0 -3.31648
76 1 11.5788 5.82416 1.72572 -3.26818
89 1 11.4786 7.45799 3.79346 -3.27583
91 2 9.09373 4.80627 0.905608 -3.32573
92 1 9.06696 6.73286 2.73504 -3.30245
96 2 13.2272 7.39425 0 -3.31648
98 1 8.72813 9.09262 3.82069 -2.98239
104 2 10.7471 8.50339 0.905608 -3.3025
68 2 7.44033 12.2005 0.905608 -3.32056
100 1 6.01177 10.3918 2.57417 -3.29141
101 1 6.18686 12.4235 4.13214 -3.21019
102 1 8.55232 11.5745 3.26083 -3.16268
106 1 8.33574 9.52882 1.4739 -3.08405
77 2 12.4005 12.2005 0.905608 -3.32056
79 1 10.0181 13.1981 1.65307 -3.28411
90 1 13.296 9.52882 1.4739 -3.08405
103 1 13.5125 11.5745 3.26083 -3.16268
105 1 10.972 10.3918 2.57417 -3.29141
108 1 11.1471 12.4235 4.13214 -3.21019
67 1 14.9783 13.1981 1.65307 -3.28411
72 1 7.64703 14.2978 2.62791 -3.3361
73 1 7.87238 16.103 4.73704 -3.34893
109 1 8.83604 13.2377 5.13607 -3.21071
74 1 10.2091 15.1519 3.43764 -3.25641
78 1 12.6072 14.2978 2.62791 -3.3361
84 1 12.8326 16.103 4.73704 -3.34893
97 1 13.7963 13.2377 5.13607 -3.21071
75 1 15.1693 15.1519 3.43764 -3.25641
1 1 8.52825 10.3479 6.07152 -3.25463
5 1 6.51294 13.9847 6.11414 -3.22025
6 1 8.38434 12.2488 7.80319 -3.26046
7 1 5.89349 13.2566 8.72246 -3.31496
9 1 5.94782 11.3952 6.90579 -3.23844
99 1 6.14012 9.58434 5.18183 -3.2147
2 1 13.4885 10.3479 6.07152 -3.25463
3 1 10.908 11.3952 6.90579 -3.23844
4 1 13.3446 12.2488 7.80319 -3.26046
13 1 10.8537 13.2566 8.72246 -3.31496
14 1 11.4732 13.9847 6.11414 -3.22025
83 1 11.1003 9.58434 5.18183 -3.2147
8 2 8.37037 14.2802 9.46168 -3.27889
17 1 6.71381 15.8784 7.86359 -3.22732
10 2 13.3306 14.2802 9.46168 -3.27889
15 1 9.08812 14.8268 7.09506 -3.15612
16 1 11.674 15.8784 7.86359 -3.22732
31 2 11.6772 17.9773 9.46168 -3.29863
34 1 9.19976 17.117 8.41305 -3.34651
35 1 10.42 16.4679 5.60529 -3.02543
44 1 11.9482 18.4277 6.73685 -3.26797
85 1 9.23561 18.5828 5.606 -3.05434
18 1 14.16 17.117 8.41305 -3.34651
19 2 16.6374 17.9773 9.46168 -3.29863
20 1 14.0483 14.8268 7.09506 -3.15612
21 1 15.3802 16.4679 5.60529 -3.02543
22 1 16.9084 18.4277 6.73685 -3.26797
71 1 14.1958 18.5828 5.606 -3.05434
36 1 9.9371 19.7423 7.79894 -3.17147
42 1 12.4376 20.6316 8.57155 -3.36038
53 2 10.0238 21.6744 9.46168 -3.31845
41 1 14.8973 19.7423 7.79894 -3.17147
43 2 14.984 21.6744 9.46168 -3.31845
46 1 17.3979 20.6316 8.57155 -3.36038
32 2 9.19707 19.0864 10.3673 -3.35675
33 2 11.6772 20.1956 11.2729 -3.31845
49 1 11.7638 22.1277 12.9356 -3.17147
52 1 9.2633 21.2384 12.163 -3.36038
60 2 12.5039 22.7835 10.3673 -3.35675
37 2 16.6374 20.1956 11.2729 -3.31845
38 1 14.2235 21.2384 12.163 -3.36038
39 1 16.7241 22.1277 12.9356 -3.17147
40 2 14.1573 19.0864 10.3673 -3.35675
45 2 17.4641 22.7835 10.3673 -3.35675
26 2 5.89026 15.3893 10.3673 -3.3332
50 1 9.75278 23.4422 13.9977 -3.26797
51 1 11.2809 25.402 15.1293 -3.02543
54 2 10.0238 23.8927 11.2729 -3.29863
58 1 12.5012 24.753 12.3215 -3.34651
66 1 12.6128 27.0431 13.6395 -3.15612
11 2 10.8505 15.3893 10.3673 -3.3332
23 2 13.3306 27.5898 11.2729 -3.27889
55 1 16.2411 25.402 15.1293 -3.02543
56 1 14.713 23.4422 13.9977 -3.26797
57 2 14.984 23.8927 11.2729 -3.29863
59 1 14.9871 25.9915 12.871 -3.22732
61 1 17.573 27.0431 13.6395 -3.15612
62 1 17.4614 24.753 12.3215 -3.34651
12 2 18.2908 27.5898 11.2729 -3.27889
63 1 19.9474 25.9915 12.871 -3.22732
25 1 13.3166 29.6212 12.9314 -3.26046
28 1 15.7531 30.4747 13.8288 -3.23844
30 1 15.8075 28.6134 12.0121 -3.31496
47 1 13.1727 31.522 14.6631 -3.25463
65 1 15.188 27.8852 14.6204 -3.22025
24 1 20.7677 28.6134 12.0121 -3.31496
27 1 18.2768 29.6212 12.9314 -3.26046
29 1 18.1329 31.522 14.6631 -3.25463
48 1 20.7133 30.4747 13.8288 -3.23844
64 1 20.1482 27.8852 14.6204 -3.22025
107 1 12.4653 23.2872 15.1286 -3.05434
114 1 11.4918 26.7181 17.2969 -3.25641
111 1 13.8286 25.767 15.9975 -3.34893
112 1 14.0539 27.5722 18.1067 -3.3361
113 1 16.452 26.7181 17.2969 -3.25641
115 1 12.8649 28.6323 15.5985 -3.21071
117 1 17.4256 23.2872 15.1286 -3.05434
116 1 18.7888 25.767 15.9975 -3.34893
120 1 19.0141 27.5722 18.1067 -3.3361
129 1 17.8251 28.6323 15.5985 -3.21071
110 1 11.6828 28.6719 19.0815 -3.28411
118 2 14.2606 29.6694 19.829 -3.32056
119 1 13.3652 32.3412 19.2607 -3.08405
122 1 16.6431 28.6719 19.0815 -3.28411
123 1 15.5141 29.4465 16.6024 -3.21019
124 1 15.6892 31.4782 18.1604 -3.29141
126 1 13.1486 30.2955 17.4738 -3.16268
127 1 15.5608 32.2856 15.5527 -3.2147
121 2 19.2208 29.6694 19.829 -3.32056
125 1 18.1088 30.2955 17.4738 -3.16268
128 1 20.4743 29.4465 16.6024 -3.21019
132 1 20.6494 31.4782 18.1604 -3.29141
134 1 18.3254 32.3412 19.2607 -3.08405
140 1 20.521 32.2856 15.5527 -3.2147
130 2 15.914 33.3666 19.829 -3.3025
131 1 15.0824 36.0458 19.0089 -3.26818
135 1 17.933 32.7773 16.9139 -2.98239
136 1 17.5942 35.1371 17.9995 -3.30245
138 1 15.1825 34.412 16.9411 -3.27583
141 2 17.5674 37.0637 19.829 -3.32573
133 2 20.8742 33.3666 19.829 -3.3025
137 1 20.1427 34.412 16.9411 -3.27583
144 1 20.0426 36.0458 19.0089 -3.26818
139 1 22.8932 32.7773 16.9139 -2.98239
142 1 22.5544 35.1371 17.9995 -3.30245
143 2 22.5277 37.0637 19.829 -3.32573
