ITEM: TIMESTEP
0
ITEM: NUMBER OF ATOMS
144
ITEM: BOX BOUNDS xy xz yz pp pp pp
0.0000000000000000e+00 2.7281192010247651e+01 4.9602167291359365e+00
0.0000000000000000e+00 4.3256388978970477e+01 1.2400541822839845e+01
0.0000000000000000e+00 1.9734580741297954e+01 3.2165007189490872e+01
ITEM: ATOMS id type x y z c_peatom
70 2 0 0 0 -3.31045
82 2 1.65341 3.69713 0 -3.30997
69 2 4.96022 0 0 -3.31045
81 2 6.61362 3.69713 0 -3.30997
80 2 4.13351 4.80627 0.905608 -3.32703
86 1 4.13351 7.02454 2.71682 -3.31083
87 1 4.13351 9.24282 4.52804 -2.09744
88 1 6.61362 8.13368 3.62243 -3.29599
91 2 9.09373 4.80627 0.905608 -3.32703
92 1 9.09373 7.02454 2.71682 -3.31083
93 1 6.61362 5.9154 1.81122 -3.35101
94 2 5.78692 8.50339 0.905608 -3.34111
95 2 8.26703 7.39425 0 -3.30997
98 1 9.09373 9.24282 4.52804 -2.09744
76 1 11.5738 5.9154 1.81122 -3.35101
89 1 11.5738 8.13368 3.62243 -3.29599
96 2 13.2272 7.39425 0 -3.30997
104 2 10.7471 8.50339 0.905608 -3.34111
68 2 7.44033 12.2005 0.905608 -3.34422
100 1 5.78692 10.7217 2.71682 -3.29789
101 1 5.78692 12.9399 4.52804 -2.65083
102 1 8.26703 11.8308 3.62243 -3.10398
106 1 8.26703 9.61253 1.81122 -3.35399
109 1 8.26703 14.0491 4.93365 -0.646231
77 2 12.4005 12.2005 0.905608 -3.34422
79 1 9.92043 13.3097 1.81122 -3.35675
90 1 13.2272 9.61253 1.81122 -3.35399
97 1 13.2272 14.0491 4.93365 -0.646231
103 1 13.2272 11.8308 3.62243 -3.10398
105 1 10.7471 10.7217 2.71682 -3.29789
108 1 10.7471 12.9399 4.52804 -2.65083
67 1 14.8807 13.3097 1.81122 -3.35675
72 1 7.44033 14.4188 2.71682 -3.2667
73 1 7.44033 16.6371 4.52804 -3.39094
74 1 9.92043 15.5279 3.62243 -3.38663
78 1 12.4005 14.4188 2.71682 -3.2667
84 1 12.4005 16.6371 4.52804 -3.39094
75 1 14.8807 15.5279 3.62243 -3.38663
1 1 8.68038 10.5368 5.33925 -1.52293
5 1 7.02697 14.2339 5.33925 -0.648612
6 1 8.68038 12.7551 7.15047 -3.40845
7 1 6.20027 13.8642 8.05608 -3.37117
9 1 6.20027 11.646 6.24486 -2.50944
99 1 6.61362 10.352 4.93365 -2.18862
2 1 13.6406 10.5368 5.33925 -1.52293
3 1 11.1605 11.646 6.24486 -2.50944
4 1 13.6406 12.7551 7.15047 -3.40845
13 1 11.1605 13.8642 8.05608 -3.37117
14 1 11.9872 14.2339 5.33925 -0.648612
83 1 11.5738 10.352 4.93365 -2.18862
8 2 8.68038 14.9734 8.96168 -3.33022
17 1 7.02697 16.4522 7.15047 -3.4026
10 2 13.6406 14.9734 8.96168 -3.33022
15 1 9.50708 15.3431 6.24486 -3.21177
16 1 11.9872 16.4522 7.15047 -3.4026
31 2 11.9872 18.6705 8.96168 -3.31009
34 1 9.50708 17.5614 8.05608 -3.3881
35 1 10.3338 17.9311 5.33925 4.41639
44 1 12.8139 19.0402 6.24486 -3.43645
85 1 9.92043 17.7462 4.93365 4.59536
18 1 14.4673 17.5614 8.05608 -3.3881
19 2 16.9474 18.6705 8.96168 -3.31009
20 1 14.4673 15.3431 6.24486 -3.21177
21 1 15.294 17.9311 5.33925 4.41639
22 1 17.7741 19.0402 6.24486 -3.43645
71 1 14.8807 17.7462 4.93365 4.59536
36 1 10.3338 20.1493 7.15047 -3.47784
42 1 12.8139 21.2585 8.05608 -3.34856
53 2 10.3338 22.3676 8.96168 -3.32463
41 1 15.294 20.1493 7.15047 -3.47784
43 2 15.294 22.3676 8.96168 -3.32463
46 1 17.7741 21.2585 8.05608 -3.34856
32 2 9.50708 19.7796 9.86729 -3.29844
33 2 11.9872 20.8888 10.7729 -3.32463
49 1 11.9872 23.107 12.5841 -3.47784
52 1 9.50708 21.9979 11.6785 -3.34856
60 2 12.8139 23.4768 9.86729 -3.29844
37 2 16.9474 20.8888 10.7729 -3.32463
38 1 14.4673 21.9979 11.6785 -3.34856
39 1 16.9474 23.107 12.5841 -3.47784
40 2 14.4673 19.7796 9.86729 -3.29844
45 2 17.7741 23.4768 9.86729 -3.29844
23 2 13.6406 28.283 10.7729 -3.33022
50 1 9.50708 24.2162 13.4897 -3.43645
51 1 11.9872 25.3253 14.3953 4.41639
54 2 10.3338 24.5859 10.7729 -3.31009
58 1 12.8139 25.695 11.6785 -3.3881
66 1 12.8139 27.9133 13.4897 -3.21177
11 2 16.1207 27.1739 9.86729 -3.30313
55 1 16.9474 25.3253 14.3953 4.41639
56 1 14.4673 24.2162 13.4897 -3.43645
57 2 15.294 24.5859 10.7729 -3.31009
59 1 15.294 26.8042 12.5841 -3.4026
61 1 17.7741 27.9133 13.4897 -3.21177
62 1 17.7741 25.695 11.6785 -3.3881
117 1 17.3608 25.5102 14.8009 4.59536
12 2 18.6008 28.283 10.7729 -3.33022
26 2 21.0809 27.1739 9.86729 -3.30313
63 1 20.2542 26.8042 12.5841 -3.4026
25 1 13.6406 30.5013 12.5841 -3.40845
47 1 13.6406 32.7196 14.3953 -1.52293
28 1 16.1207 31.6104 13.4897 -2.50944
30 1 16.1207 29.3922 11.6785 -3.37117
65 1 15.294 29.0224 14.3953 -0.648612
115 1 14.0539 29.2073 14.8009 -0.646231
127 1 15.7074 32.9044 14.8009 -2.18862
24 1 21.0809 29.3922 11.6785 -3.37117
27 1 18.6008 30.5013 12.5841 -3.40845
29 1 18.6008 32.7196 14.3953 -1.52293
48 1 21.0809 31.6104 13.4897 -2.50944
64 1 20.2542 29.0224 14.3953 -0.648612
129 1 19.0142 29.2073 14.8009 -0.646231
140 1 20.6676 32.9044 14.8009 -2.18862
107 1 12.4005 25.5102 14.8009 4.59536
114 1 12.4005 27.7285 16.1122 -3.38663
111 1 14.8807 26.6193 15.2065 -3.39094
113 1 17.3608 27.7285 16.1122 -3.38663
116 1 19.8409 26.6193 15.2065 -3.39094
110 1 12.4005 29.9467 17.9234 -3.35675
112 1 14.8807 28.8376 17.0178 -3.2667
118 2 14.8807 31.0559 18.829 -3.34422
122 1 17.3608 29.9467 17.9234 -3.35675
123 1 16.5341 30.3164 15.2065 -2.65083
124 1 16.5341 32.5347 17.0178 -3.29789
126 1 14.0539 31.4256 16.1122 -3.10398
120 1 19.8409 28.8376 17.0178 -3.2667
121 2 19.8409 31.0559 18.829 -3.34422
125 1 19.0142 31.4256 16.1122 -3.10398
128 1 21.4943 30.3164 15.2065 -2.65083
132 1 21.4943 32.5347 17.0178 -3.29789
119 1 14.0539 33.6439 17.9234 -3.35399
130 2 16.5341 34.753 18.829 -3.34111
131 1 15.7074 37.341 17.9234 -3.35101
135 1 18.1875 34.0136 15.2065 -2.09744
136 1 18.1875 36.2318 17.0178 -3.31083
138 1 15.7074 35.1227 16.1122 -3.29599
133 2 21.4943 34.753 18.829 -3.34111
134 1 19.0142 33.6439 17.9234 -3.35399
137 1 20.6676 35.1227 16.1122 -3.29599
144 1 20.6676 37.341 17.9234 -3.35101
139 1 23.1477 34.0136 15.2065 -2.09744
142 1 23.1477 36.2318 17.0178 -3.31083
141 2 18.1875 38.4501 18.829 -3.32703
143 2 23.1477 38.4501 18.829 -3.32703
