#Lammps coordinate file for CSL - Axis: [1 1 1]  Angle: (1, 3) -> 59.99999999999999  Plane indices: [0 1 1]  z-position: [5.1836451853244885 15.550935555973464]  Repeats: 1 1 (3, 3) (black, white)  Fixed: 2.228  Boundary equiv: True
144 atoms

2 atom types

0.0 9.920433458271871 xlo xhi
0.0 11.091381789479609 ylo yhi
0.0 20.734580741297954 zlo zhi
4.9602167291359365 16.74073146083379 39.09712080791563 xy xz yz

Atoms

1 1 10.850474094984861 14.002869509218009 5.839252716211904
2 1 15.810690824120794 14.002869509218009 5.839252716211904
3 1 13.33058245955283 15.112007688165969 6.74486024709932
4 1 15.810690824120796 16.221145867113933 7.650467777986734
5 1 19.11750197687809 17.69999677237788 5.839252716211904
6 1 10.850474094984861 16.221145867113933 7.650467777986734
7 1 8.370365730416895 17.33028404606189 8.55607530887415
8 2 10.850474094984861 18.439422225009853 9.461682839761563
9 1 8.370365730416895 15.11200768816597 6.744860247099319
10 2 15.810690824120796 18.439422225009853 9.461682839761563
11 2 13.33058245955283 19.548560403957815 10.367290370648979
12 2 15.810690824120798 20.657698582905773 11.272897901536393
13 1 13.33058245955283 17.33028404606189 8.55607530887415
14 1 14.15728524774215 17.69999677237788 5.839252716211904
15 1 11.677176883174184 18.809134951325838 6.744860247099319
16 1 14.157285247742152 19.918273130273803 7.650467777986734
17 1 19.11750197687809 19.9182731302738 7.650467777986734
18 1 16.63739361231012 21.027411309221762 8.55607530887415
19 2 19.11750197687809 22.13654948816972 9.461682839761563
20 1 16.63739361231012 18.809134951325838 6.74486024709932
21 1 17.464096400499443 21.39712403553775 5.839252716211903
22 1 19.94420476506741 22.50626221448571 6.744860247099318
23 2 10.850474094984863 20.657698582905773 11.272897901536393
24 1 8.370365730416896 21.76683676185374 12.178505432423808
25 1 10.850474094984863 22.875974940801697 13.084112963311222
26 2 8.370365730416896 19.548560403957815 10.367290370648979
27 1 15.810690824120798 22.875974940801697 13.084112963311222
28 1 13.330582459552831 23.985113119749656 13.989720494198638
29 1 15.810690824120798 25.09425129869762 14.895328025086053
30 1 13.330582459552831 21.76683676185374 12.178505432423808
31 2 14.157285247742152 22.136549488169724 9.461682839761563
32 2 11.677176883174186 23.245687667117686 10.367290370648979
33 2 14.157285247742152 24.354825846065644 11.272897901536393
34 1 11.677176883174186 21.027411309221762 8.55607530887415
35 1 12.503879671363507 21.39712403553775 5.839252716211903
36 1 12.503879671363507 23.615400393433674 7.650467777986734
37 2 19.11750197687809 24.354825846065644 11.272897901536393
38 1 16.63739361231012 25.46396402501361 12.178505432423808
39 1 19.11750197687809 26.573102203961568 13.084112963311224
40 2 16.63739361231012 23.245687667117686 10.367290370648979
41 1 17.464096400499443 23.615400393433667 7.650467777986734
42 1 14.983988035931475 24.724538572381633 8.55607530887415
43 2 17.464096400499443 25.83367675132959 9.461682839761563
44 1 14.983988035931475 22.50626221448571 6.744860247099319
45 2 19.94420476506741 26.942814930277557 10.367290370648977
46 1 19.94420476506741 24.724538572381633 8.55607530887415
47 1 10.850474094984865 25.09425129869762 14.895328025086052
48 1 8.370365730416896 23.985113119749663 13.989720494198638
49 1 14.157285247742152 26.573102203961568 13.084112963311222
50 1 11.677176883174187 27.682240382909526 13.989720494198638
51 1 14.157285247742154 28.791378561857492 14.895328025086053
52 1 11.677176883174187 25.46396402501361 12.178505432423808
53 2 12.503879671363507 25.83367675132959 9.461682839761563
54 2 12.503879671363508 28.051953109225515 11.272897901536393
55 1 19.11750197687809 28.791378561857492 14.895328025086052
56 1 16.63739361231012 27.682240382909526 13.98972049419864
57 2 17.464096400499443 28.051953109225515 11.272897901536393
58 1 14.983988035931477 29.16109128817348 12.178505432423808
59 1 17.464096400499443 30.27022946712144 13.084112963311224
60 2 14.983988035931475 26.942814930277557 10.367290370648979
61 1 19.94420476506741 31.379367646069397 13.989720494198636
62 1 19.944204765067408 29.161091288173473 12.178505432423808
63 1 12.503879671363508 30.27022946712144 13.08411296331122
64 1 12.503879671363508 32.48850582501736 14.895328025086052
65 1 17.464096400499443 32.48850582501736 14.89532802508605
66 1 14.983988035931477 31.379367646069397 13.989720494198638
67 1 0.0 2.218276357895922 1.811215061774829
68 2 2.4801083645679682 1.109138178947961 0.9056075308874146
69 2 4.960216729135936 0.0 -2.220446049250313e-16
70 2 0.0 0.0 0.0
71 1 0.0 6.654829073687768 5.1836451853244885
72 1 2.4801083645679682 3.327414536843884 2.7168225926622442
73 1 2.4801083645679682 5.545690894739806 4.528037654437074
74 1 4.960216729135936 4.436552715791845 3.6224301235496585
75 1 0.0 4.436552715791845 3.6224301235496585
76 1 1.6534055763786455 5.915403621055794 1.811215061774829
77 2 7.440325093703903 1.109138178947961 0.9056075308874144
78 1 7.440325093703903 3.3274145368438837 2.7168225926622442
79 1 4.960216729135936 2.218276357895922 1.811215061774829
80 2 4.133513940946613 4.806265442107832 0.9056075308874144
81 2 6.61362230551458 3.6971272631598704 -6.106226635438361e-16
82 2 1.6534055763786455 3.697127263159871 -3.885780586188048e-16
83 1 1.6534055763786455 10.351956336847639 5.1836451853244885
84 1 7.440325093703903 5.545690894739806 4.528037654437074
85 1 4.960216729135936 6.654829073687768 5.1836451853244885
86 1 4.133513940946613 7.024541800003755 2.716822592662244
87 1 4.133513940946613 9.242818157899677 4.528037654437074
88 1 6.61362230551458 8.133679978951715 3.6224301235496585
89 1 1.6534055763786455 8.133679978951717 3.6224301235496585
90 1 3.306811152757291 9.612530884215664 1.8112150617748286
91 2 9.093730670082548 4.806265442107832 0.9056075308874142
92 1 9.093730670082547 7.024541800003755 2.716822592662244
93 1 6.61362230551458 5.915403621055793 1.8112150617748286
94 2 5.7869195173252574 8.503392705267704 0.905607530887414
95 2 8.267027881893226 7.394254526319742 -9.992007221626409e-16
96 2 3.306811152757291 7.394254526319742 -7.771561172376096e-16
97 1 3.306811152757291 14.04908360000751 5.183645185324488
98 1 9.093730670082547 9.242818157899677 4.528037654437074
99 1 6.613622305514581 10.351956336847639 5.1836451853244885
100 1 5.786919517325258 10.721669063163626 2.7168225926622434
101 1 5.786919517325258 12.939945421059548 4.528037654437073
102 1 8.267027881893226 11.830807242111586 3.6224301235496585
103 1 3.306811152757291 11.830807242111588 3.6224301235496585
104 2 10.747136246461192 8.503392705267704 0.9056075308874137
105 1 10.747136246461192 10.721669063163626 2.7168225926622434
106 1 8.267027881893226 9.612530884215664 1.8112150617748282
107 1 16.740731460833786 32.442291734227865 15.550935555973467
108 1 10.747136246461192 12.939945421059548 4.528037654437073
109 1 8.267027881893226 14.04908360000751 5.183645185324488
110 1 16.740731460833786 36.878844450019706 18.923365679523123
111 1 19.220839825401754 33.551429913175824 16.20654308686088
112 1 19.220839825401754 35.76970627107175 18.01775814863571
113 1 21.700948189969722 34.66056809212379 17.112150617748295
114 1 16.740731460833786 34.66056809212379 17.112150617748295
115 1 18.39413703721243 36.139418997387736 15.550935555973464
116 1 24.18105655453769 33.551429913175824 16.20654308686088
117 1 21.700948189969722 32.442291734227865 15.550935555973464
118 2 19.220839825401754 37.98798262896767 19.82897321041054
119 1 18.39413703721243 40.57597171317958 18.923365679523123
120 1 24.18105655453769 35.76970627107175 18.017758148635707
121 2 24.18105655453769 37.98798262896767 19.82897321041054
122 1 21.700948189969722 36.878844450019706 18.923365679523126
123 1 20.8742454017804 37.248557176335694 16.20654308686088
124 1 20.8742454017804 39.46683353423162 18.01775814863571
125 1 23.354353766348368 38.35769535528366 17.112150617748295
126 1 18.39413703721243 38.35769535528366 17.112150617748295
127 1 20.047542613591077 39.83654626054761 15.550935555973464
128 1 25.834462130916336 37.248557176335694 16.20654308686088
129 1 23.354353766348368 36.139418997387736 15.550935555973464
130 2 20.8742454017804 41.68510989212754 19.82897321041054
131 1 20.047542613591077 44.27309897633945 18.923365679523123
132 1 25.834462130916336 39.46683353423162 18.017758148635707
133 2 25.834462130916336 41.68510989212754 19.82897321041054
134 1 23.354353766348368 40.57597171317958 18.923365679523126
135 1 22.527650978159045 40.945684439495565 16.20654308686088
136 1 22.527650978159045 43.16396079739149 18.01775814863571
137 1 25.007759342727013 42.05482261844353 17.112150617748295
138 1 20.047542613591077 42.05482261844353 17.112150617748295
139 1 27.48786770729498 40.945684439495565 16.20654308686088
140 1 25.007759342727013 39.83654626054761 15.550935555973464
141 2 22.527650978159045 45.38223715528741 19.82897321041054
142 1 27.48786770729498 43.16396079739149 18.017758148635707
143 2 27.48786770729498 45.38223715528741 19.82897321041054
144 1 25.007759342727013 44.27309897633945 18.923365679523126
