#Lammps coordinate file for CSL - Axis: [1 1 1]  Angle: (1, 3) -> 59.99999999999999  Plane indices: [0 1 1]  z-position: [5.1836451853244885 15.550935555973464]  Repeats: 1 1 (3, 3) (black, white)  Fixed: 2.228  Boundary equiv: True
144 atoms

2 atom types

0.0 9.920433458271871 xlo xhi
0.0 11.091381789479609 ylo yhi
0.0 20.734580741297954 zlo zhi
4.9602167291359365 6.200270911419925 29.392161742120972 xy xz yz

Atoms

1 1 5.5802438202779285 9.15038997632068 5.839252716211904
2 1 10.540460549413861 9.150389976320678 5.839252716211904
3 1 8.060352184845897 10.25952815526864 6.74486024709932
4 1 10.540460549413863 11.368666334216602 7.650467777986734
5 1 13.847271702171154 12.847517239480549 5.839252716211904
6 1 5.5802438202779285 11.368666334216602 7.650467777986734
7 1 3.1001354557099616 12.477804513164564 8.55607530887415
8 2 5.5802438202779285 13.586942692112524 9.461682839761563
9 1 3.1001354557099616 10.259528155268642 6.744860247099319
10 2 10.540460549413863 13.586942692112524 9.461682839761563
11 2 8.060352184845897 14.696080871060484 10.367290370648979
12 2 10.540460549413863 15.805219050008446 11.272897901536393
13 1 8.060352184845897 12.477804513164564 8.55607530887415
14 1 8.887054973035218 12.847517239480549 5.839252716211904
15 1 6.406946608467251 13.956655418428511 6.744860247099319
16 1 8.887054973035218 15.065793597376473 7.650467777986734
17 1 13.847271702171154 15.065793597376471 7.650467777986734
18 1 11.367163337603188 16.17493177632443 8.55607530887415
19 2 13.847271702171156 17.284069955272393 9.461682839761563
20 1 11.367163337603186 13.956655418428511 6.74486024709932
21 1 12.19386612579251 16.54464450264042 5.839252716211903
22 1 14.673974490360479 17.653782681588382 6.744860247099318
23 2 5.58024382027793 15.805219050008446 11.272897901536393
24 1 3.1001354557099625 16.91435722895641 12.178505432423808
25 1 5.58024382027793 18.02349540790437 13.084112963311222
26 2 3.1001354557099625 14.696080871060486 10.367290370648979
27 1 10.540460549413865 18.02349540790437 13.084112963311222
28 1 8.060352184845899 19.13263358685233 13.989720494198638
29 1 10.540460549413865 20.24177176580029 14.895328025086053
30 1 8.060352184845899 16.91435722895641 12.178505432423808
31 2 8.88705497303522 17.284069955272393 9.461682839761563
32 2 6.406946608467253 18.393208134220355 10.367290370648979
33 2 8.88705497303522 19.502346313168317 11.272897901536393
34 1 6.406946608467253 16.174931776324435 8.55607530887415
35 1 7.233649396656574 16.54464450264042 5.839252716211903
36 1 7.233649396656574 18.762920860536344 7.650467777986734
37 2 13.847271702171156 19.502346313168317 11.272897901536393
38 1 11.367163337603188 20.61148449211628 12.178505432423808
39 1 13.847271702171156 21.72062267106424 13.084112963311224
40 2 11.367163337603188 18.393208134220355 10.367290370648979
41 1 12.19386612579251 18.76292086053634 7.650467777986734
42 1 9.713757761224542 19.872059039484306 8.55607530887415
43 2 12.19386612579251 20.981197218432264 9.461682839761563
44 1 9.713757761224542 17.653782681588382 6.744860247099319
45 2 14.673974490360479 22.090335397380226 10.367290370648977
46 1 14.673974490360479 19.872059039484302 8.55607530887415
47 1 5.58024382027793 20.241771765800294 14.895328025086052
48 1 3.1001354557099634 19.132633586852332 13.989720494198638
49 1 8.88705497303522 21.72062267106424 13.084112963311222
50 1 6.406946608467255 22.8297608500122 13.989720494198638
51 1 8.887054973035221 23.93889902896016 14.895328025086053
52 1 6.406946608467253 20.61148449211628 12.178505432423808
53 2 7.233649396656574 20.981197218432264 9.461682839761563
54 2 7.233649396656576 23.199473576328188 11.272897901536393
55 1 13.847271702171156 23.93889902896016 14.895328025086052
56 1 11.367163337603188 22.8297608500122 13.98972049419864
57 2 12.19386612579251 23.199473576328188 11.272897901536393
58 1 9.713757761224544 24.30861175527615 12.178505432423808
59 1 12.193866125792512 25.417749934224112 13.084112963311224
60 2 9.713757761224542 22.090335397380226 10.367290370648979
61 1 14.673974490360477 26.52688811317207 13.989720494198636
62 1 14.673974490360475 24.308611755276146 12.178505432423808
63 1 7.233649396656576 25.417749934224112 13.08411296331122
64 1 7.233649396656576 27.636026292120032 14.895328025086052
65 1 12.193866125792512 27.636026292120032 14.89532802508605
66 1 9.713757761224544 26.52688811317207 13.989720494198638
67 1 4.440892098500626e-16 2.2182763578959226 1.8112150617748295
68 2 2.480108364567968 1.109138178947961 0.9056075308874146
69 2 4.960216729135936 -4.440892098500626e-16 -2.220446049250313e-16
70 2 0.0 0.0 0.0
71 1 4.440892098500626e-16 6.654829073687768 5.1836451853244885
72 1 2.480108364567968 3.327414536843884 2.7168225926622442
73 1 2.4801083645679682 5.545690894739806 4.528037654437074
74 1 4.960216729135936 4.436552715791845 3.622430123549659
75 1 4.440892098500626e-16 4.436552715791845 3.622430123549659
76 1 1.6534055763786455 5.915403621055794 1.811215061774829
77 2 7.440325093703903 1.109138178947961 0.9056075308874146
78 1 7.440325093703903 3.3274145368438837 2.7168225926622442
79 1 4.960216729135936 2.218276357895922 1.8112150617748295
80 2 4.133513940946613 4.806265442107832 0.9056075308874142
81 2 6.61362230551458 3.69712726315987 -6.106226635438361e-16
82 2 1.6534055763786453 3.697127263159871 -3.885780586188048e-16
83 1 1.6534055763786455 10.351956336847639 5.1836451853244885
84 1 7.440325093703903 5.545690894739806 4.528037654437074
85 1 4.960216729135936 6.654829073687768 5.1836451853244885
86 1 4.133513940946613 7.024541800003755 2.716822592662244
87 1 4.133513940946613 9.242818157899677 4.528037654437074
88 1 6.61362230551458 8.133679978951715 3.622430123549659
89 1 1.6534055763786457 8.133679978951717 3.622430123549659
90 1 3.3068111527572905 9.612530884215664 1.8112150617748286
91 2 9.093730670082548 4.806265442107832 0.9056075308874142
92 1 9.093730670082547 7.024541800003755 2.716822592662244
93 1 6.61362230551458 5.915403621055793 1.8112150617748286
94 2 5.7869195173252574 8.503392705267704 0.9056075308874137
95 2 8.267027881893226 7.394254526319742 -9.992007221626409e-16
96 2 3.3068111527572905 7.394254526319742 -7.771561172376096e-16
97 1 3.306811152757291 14.04908360000751 5.183645185324488
98 1 9.093730670082547 9.242818157899677 4.528037654437074
99 1 6.613622305514581 10.351956336847639 5.1836451853244885
100 1 5.786919517325258 10.721669063163626 2.7168225926622434
101 1 5.786919517325258 12.939945421059548 4.528037654437073
102 1 8.267027881893226 11.830807242111586 3.622430123549658
103 1 3.306811152757291 11.830807242111588 3.622430123549658
104 2 10.747136246461192 8.503392705267704 0.9056075308874137
105 1 10.747136246461192 10.721669063163626 2.7168225926622434
106 1 8.267027881893226 9.612530884215664 1.8112150617748286
107 1 6.2002709114199215 22.737332668433208 15.550935555973467
108 1 10.747136246461192 12.939945421059548 4.528037654437073
109 1 8.267027881893226 14.04908360000751 5.183645185324488
110 1 6.2002709114199215 27.173885384225052 18.923365679523123
111 1 8.680379275987889 23.84647084738117 16.20654308686088
112 1 8.68037927598789 26.064747205277094 18.01775814863571
113 1 11.160487640555857 24.95560902632913 17.112150617748295
114 1 6.2002709114199215 24.95560902632913 17.112150617748295
115 1 7.853676487798566 26.43445993159308 15.550935555973464
116 1 13.640596005123824 23.84647084738117 16.20654308686088
117 1 11.160487640555857 22.737332668433208 15.550935555973464
118 2 8.68037927598789 28.283023563173014 19.82897321041054
119 1 7.853676487798568 30.871012647384923 18.923365679523123
120 1 13.640596005123824 26.06474720527709 18.017758148635707
121 2 13.640596005123825 28.283023563173014 19.82897321041054
122 1 11.160487640555857 27.173885384225052 18.923365679523126
123 1 10.333784852366534 27.54359811054104 16.20654308686088
124 1 10.333784852366536 29.761874468436964 18.01775814863571
125 1 12.813893216934503 28.652736289489003 17.112150617748295
126 1 7.853676487798568 28.652736289489003 17.112150617748295
127 1 9.507082064177212 30.13158719475295 15.550935555973464
128 1 15.29400158150247 27.54359811054104 16.20654308686088
129 1 12.813893216934503 26.43445993159308 15.550935555973464
130 2 10.333784852366536 31.980150826332885 19.82897321041054
131 1 9.507082064177213 34.568139910544794 18.923365679523123
132 1 15.29400158150247 29.76187446843696 18.017758148635707
133 2 15.29400158150247 31.980150826332885 19.82897321041054
134 1 12.813893216934503 30.871012647384923 18.923365679523126
135 1 11.98719042874518 31.24072537370091 16.20654308686088
136 1 11.987190428745182 33.459001731596835 18.01775814863571
137 1 14.467298793313148 32.34986355264887 17.112150617748295
138 1 9.507082064177213 32.34986355264887 17.112150617748295
139 1 16.947407157881116 31.24072537370091 16.20654308686088
140 1 14.467298793313148 30.13158719475295 15.550935555973464
141 2 11.987190428745182 35.67727808949276 19.82897321041054
142 1 16.947407157881116 33.45900173159683 18.017758148635707
143 2 16.947407157881116 35.67727808949276 19.82897321041054
144 1 14.467298793313148 34.568139910544794 18.923365679523126
