ITEM: TIMESTEP
110044
ITEM: NUMBER OF ATOMS
144
ITEM: BOX BOUNDS xy xz yz pp pp pp
0.0000000000000000e+00 3.0381327465957614e+01 4.9602167291359365e+00
0.0000000000000000e+00 5.5734193492135049e+01 1.5500677278549807e+01
0.0000000000000000e+00 2.4734580741297954e+01 4.4642811702655436e+01
ITEM: ATOMS id type x y z c_peatom
69 2 4.96022 4.00763e-16 0 -3.35097
70 2 0 0 0 -3.34979
81 2 6.61362 3.69713 0 -3.35118
82 2 11.5738 3.69713 0 -3.38435
80 2 4.13351 4.80627 0.905608 -3.28466
86 1 4.19985 6.95042 2.95155 -3.21651
87 1 4.23425 9.31779 4.81198 -3.33968
88 1 6.69615 8.10227 3.89236 -3.30822
91 2 9.09373 4.80627 0.905608 -3.3578
92 1 9.12785 7.09608 2.84201 -3.28015
93 1 6.63451 5.94635 1.90765 -3.28064
94 2 5.78692 8.50339 0.905608 -3.35962
95 2 8.26703 7.39425 0 -3.39357
83 1 9.18776 9.30448 4.82362 -3.31468
76 1 11.6092 5.97266 1.8798 -3.24803
89 1 11.6427 8.13345 3.88458 -3.25887
96 2 13.2272 7.39425 0 -3.35115
104 2 10.7471 8.50339 0.905608 -3.35242
68 2 7.44033 12.2005 0.905608 -3.35868
79 1 9.95264 13.3385 1.88472 -3.31194
100 1 5.82156 10.7639 2.86755 -3.33322
102 1 8.31321 11.9509 3.78813 -3.30505
106 1 8.28186 9.64395 1.92427 -3.34548
101 1 5.87141 13.2164 4.74585 -3.26829
67 1 14.9254 13.3679 1.91648 -3.38029
77 2 12.4005 12.2005 0.905608 -3.35568
90 1 13.2544 9.58761 1.94228 -3.35399
103 1 13.2735 11.9766 3.78581 -3.36445
105 1 10.7917 10.7515 2.866 -3.34964
108 1 10.7793 13.1929 4.67096 -3.25529
72 1 7.52729 14.5356 2.85416 -3.22202
78 1 12.4281 14.5393 2.80813 -3.29258
75 1 14.9501 15.7407 3.76252 -3.23704
99 1 6.75007 10.5597 5.72255 -3.3239
71 1 11.6673 10.537 5.71788 -3.37456
73 1 8.33785 17.6998 5.78599 -3.20962
109 1 8.49831 14.6351 5.66478 -3.18346
1 1 7.66799 17.7141 8.60446 -3.29503
2 1 6.03515 15.9719 6.54292 -2.99424
84 1 10.1053 16.4872 7.61915 -3.10049
74 1 10.8883 16.3209 4.77667 -3.16709
98 1 13.4439 17.6254 5.68643 -3.14568
3 1 12.6574 17.6859 8.58564 -3.0456
97 1 13.192 14.5099 5.56155 -3.02065
5 1 8.46284 20.2369 7.61579 -3.35812
21 1 9.23994 22.8455 6.57032 -3.22943
17 1 8.52134 22.6379 9.48127 -3.20899
44 1 14.1519 22.8988 6.61821 -3.33781
6 1 10.1935 18.8919 9.51241 -3.35708
85 1 10.931 19.0079 6.66567 -3.30975
14 1 13.4122 20.2594 7.64712 -3.32085
15 1 10.9676 21.4707 8.55344 -3.32118
16 1 13.4729 22.5938 9.50676 -3.35932
4 1 15.1523 18.9332 9.5639 -3.32299
9 1 15.8292 18.9851 6.7558 -3.24902
20 1 15.9202 21.4478 8.56812 -3.36693
35 1 11.7316 24.1721 7.52359 -3.18831
41 1 14.2363 25.1203 8.52765 -3.17475
36 1 11.8439 26.3274 9.52213 -3.16766
22 1 16.6655 23.964 7.47042 -3.01611
7 1 7.74545 20.0737 10.4569 -3.36844
8 2 10.2304 21.2123 11.4617 -3.35221
10 2 15.1907 21.2123 11.4617 -3.35998
13 1 12.6756 20.0465 10.4687 -3.37297
31 2 13.5373 24.9094 11.4617 -3.35421
32 2 11.0571 26.0185 12.3673 -3.37007
33 2 13.5373 27.1277 13.2729 -3.37229
34 1 11.0528 23.7513 10.4566 -3.26077
42 1 14.3679 27.4256 10.4589 -3.26092
18 1 15.9772 23.7786 10.4401 -3.22633
19 2 18.4975 24.9094 11.4617 -3.15307
37 2 18.4975 27.1277 13.2729 -3.38756
40 2 16.0174 26.0185 12.3673 -3.28514
46 1 19.3393 27.4968 10.535 -3.05219
52 1 11.0389 28.2743 14.2276 -3.3849
53 2 11.8839 28.6065 11.4617 -3.36945
54 2 11.8839 30.8248 13.2729 -3.36849
58 1 14.3913 31.971 14.2827 -3.38092
60 2 14.364 29.7157 12.3673 -3.38001
38 1 16.0251 28.2663 14.2246 -3.27886
43 2 16.8441 28.6065 11.4617 -3.29877
45 2 19.3242 29.7157 12.3673 -3.39027
57 2 16.8441 30.8248 13.2729 -3.37357
62 1 19.3498 31.9772 14.2626 -3.36544
26 2 12.7106 33.4128 12.3673 -3.37653
11 2 17.6708 33.4128 12.3673 -3.35207
12 2 20.1509 34.5219 13.2729 -3.36366
23 2 15.1907 34.5219 13.2729 -3.36414
30 1 17.6655 35.6547 14.2632 -3.37235
24 1 22.6551 35.6817 14.2505 -3.38407
49 1 13.5515 29.4088 15.1256 -3.14389
50 1 11.1102 30.5741 16.0994 -3.14503
115 1 13.6491 31.7489 17.155 -3.06558
39 1 18.5109 29.4268 15.1445 -3.2724
55 1 18.6204 31.6606 17.1538 -3.24534
29 1 16.0929 30.4895 16.2155 -3.09195
66 1 14.4484 34.2717 16.1539 -3.36051
107 1 14.4149 36.6124 18.0137 -3.33586
25 1 15.1898 36.8336 15.192 -3.39095
27 1 20.173 36.7884 15.1465 -3.30089
59 1 16.8867 33.0601 15.2269 -3.36359
61 1 19.3821 34.2386 16.1523 -3.37117
65 1 16.9148 35.4085 17.0841 -3.37903
117 1 19.4536 36.6261 17.9655 -3.1152
63 1 21.8585 33.1342 15.1949 -3.36975
64 1 21.887 35.421 17.0636 -3.33574
51 1 21.1109 32.8857 18.0918 -3.2103
47 1 15.1496 39.1502 17.0568 -3.10803
28 1 17.6631 37.9452 16.0615 -3.168
111 1 16.877 37.717 18.9092 -2.93685
48 1 22.6306 37.9915 16.1303 -3.20873
129 1 22.1727 41.2733 19.1321 -3.0648
116 1 21.9703 38.0573 19.0026 -3.02686
127 1 18.6639 45.1764 19.011 -3.32669
56 1 21.1667 43.946 18.1107 -3.33961
140 1 23.6419 45.1495 19.0215 -3.37923
114 1 14.4597 39.3308 19.9832 -3.01801
112 1 17.9492 41.2559 21.9666 -3.06605
113 1 20.4634 40.0384 21.0341 -3.03788
120 1 22.931 41.1927 21.936 -3.30949
110 1 15.4685 42.4002 22.8578 -3.29841
118 2 17.9808 43.5337 23.829 -3.38156
119 1 17.1522 46.1008 22.8198 -3.35005
123 1 19.6617 42.6983 20.1094 -3.12346
124 1 19.6201 44.9857 21.9174 -3.35601
126 1 17.1304 43.8586 21.008 -3.2501
128 1 24.5978 42.5279 20.0592 -3.08708
121 2 22.941 43.5337 23.829 -3.35848
122 1 20.4526 42.3825 22.8587 -3.41613
125 1 22.1332 43.7449 20.9785 -3.37146
132 1 24.5717 44.9812 21.8866 -3.36504
134 1 22.0959 46.1261 22.8047 -3.36377
135 1 21.1558 46.3103 19.9418 -3.35291
130 2 19.6342 47.2308 23.829 -3.35979
131 1 18.7868 49.7839 22.8205 -3.29279
138 1 18.7379 47.6096 20.8284 -3.33686
133 2 24.5944 47.2308 23.829 -3.35406
136 1 21.2144 48.7195 21.8148 -3.21191
137 1 23.6846 47.5386 20.8646 -3.24963
141 2 21.2876 50.9279 23.829 -3.29498
144 1 23.7379 49.7485 22.8709 -3.25165
139 1 26.1537 46.4102 19.9097 -3.34465
142 1 26.2231 48.62 21.8872 -3.28124
143 2 26.2478 50.9279 23.829 -3.36428
