ITEM: TIMESTEP
110083
ITEM: NUMBER OF ATOMS
144
ITEM: BOX BOUNDS xy xz yz pp pp pp
0.0000000000000000e+00 2.9141273283673627e+01 4.9602167291359365e+00
0.0000000000000000e+00 5.0188502597395242e+01 1.4260623096265821e+01
0.0000000000000000e+00 2.2734580741297954e+01 3.9097120807915630e+01
ITEM: ATOMS id type x y z c_peatom
70 2 0 0 0 -3.38114
69 2 4.96022 2.86391e-16 0 -3.38114
81 2 6.61362 3.69713 0 -3.3498
82 2 11.5738 3.69713 0 -3.3498
80 2 4.13351 4.80627 0.905608 -3.35608
86 1 4.27454 6.89599 2.75029 -3.35344
91 2 9.09373 4.80627 0.905608 -3.35608
92 1 9.23475 6.89599 2.75029 -3.35344
93 1 6.67655 5.84343 1.85749 -3.34962
94 2 5.78692 8.50339 0.905608 -3.34338
95 2 8.26703 7.39425 0 -3.35053
88 1 6.90996 7.95935 3.67136 -3.28648
76 1 11.6368 5.84343 1.85749 -3.34962
89 1 11.8702 7.95935 3.67136 -3.28648
96 2 13.2272 7.39425 0 -3.35053
104 2 10.7471 8.50339 0.905608 -3.34338
68 2 7.44033 12.2005 0.905608 -3.37746
100 1 5.7984 10.5866 2.65299 -3.2976
102 1 8.19631 11.5354 3.64027 -3.28352
106 1 8.29884 9.51955 1.78825 -3.33877
101 1 5.61945 12.6263 4.50767 -3.24196
79 1 9.90453 13.233 1.80418 -3.38349
77 2 12.4005 12.2005 0.905608 -3.37746
90 1 13.2591 9.51955 1.78825 -3.33877
103 1 13.1565 11.5354 3.64027 -3.28352
105 1 10.7586 10.5866 2.65299 -3.2976
108 1 10.5797 12.6263 4.50767 -3.24196
67 1 14.8647 13.233 1.80418 -3.38349
72 1 7.45425 14.2921 2.71777 -3.3806
74 1 9.98261 15.3421 3.60683 -3.34854
78 1 12.4145 14.2921 2.71777 -3.3806
75 1 14.9428 15.3421 3.60683 -3.34854
87 1 4.62813 8.97723 4.60464 -3.19176
98 1 9.58834 8.97723 4.60464 -3.19176
97 1 12.9464 13.6556 5.4317 -3.22053
83 1 12.4181 9.62432 5.89186 -3.15523
73 1 7.61728 16.333 4.65383 -3.3353
109 1 7.98619 13.6556 5.4317 -3.22053
9 1 7.49532 15.2858 7.66238 -3.21173
5 1 7.90329 18.0486 6.76708 -3.28148
6 1 9.79891 16.3431 8.56048 -3.28986
1 1 10.2713 14.7497 6.31295 -3.20067
84 1 12.5775 16.333 4.65383 -3.3353
3 1 12.4555 15.2858 7.66238 -3.21173
85 1 10.2375 17.4417 5.47937 -3.27728
14 1 12.8635 18.0486 6.76708 -3.28148
4 1 14.7591 16.3431 8.56049 -3.28986
2 1 15.2315 14.7497 6.31295 -3.20067
71 1 15.1977 17.4417 5.47937 -3.27728
17 1 8.00714 20.0744 8.64824 -3.33867
35 1 10.2444 21.7584 6.78599 -3.14352
99 1 12.4181 20.7157 5.89187 -3.15523
15 1 10.4542 19.0564 7.70656 -3.33323
16 1 12.9674 20.0744 8.64824 -3.33867
44 1 13.0339 22.8049 7.72869 -3.15866
21 1 15.2046 21.7584 6.78599 -3.14352
20 1 15.4144 19.0564 7.70656 -3.33323
22 1 17.9942 22.8049 7.72869 -3.15866
36 1 10.8427 23.8894 8.56437 -3.20313
41 1 15.8029 23.8894 8.56437 -3.20313
7 1 7.19271 17.4111 9.51003 -3.34982
13 1 12.1529 17.4111 9.51003 -3.34982
8 2 9.61042 18.4394 10.4617 -3.36269
26 2 7.13031 19.5486 11.3673 -3.35941
10 2 14.5706 18.4394 10.4617 -3.36269
31 2 12.9172 22.1365 10.4617 -3.35124
34 1 10.4596 21.1289 9.55472 -3.35217
11 2 12.0905 19.5486 11.3673 -3.35941
18 1 15.4199 21.1289 9.55472 -3.35217
19 2 17.8774 22.1365 10.4617 -3.35124
32 2 10.4371 23.2457 11.3673 -3.37001
33 2 12.9172 24.3548 12.2729 -3.34118
42 1 13.5967 24.8004 9.62978 -3.25222
52 1 10.4943 25.3351 13.1966 -3.34663
53 2 11.2638 25.8337 10.4617 -3.35644
60 2 13.7439 26.9428 11.3673 -3.36195
37 2 17.8774 24.3548 12.2729 -3.34118
38 1 15.4545 25.3351 13.1966 -3.34663
40 2 15.3973 23.2457 11.3673 -3.37001
43 2 16.224 25.8337 10.4617 -3.35644
45 2 18.7042 26.9428 11.3673 -3.36195
46 1 18.5569 24.8004 9.62978 -3.25222
23 2 14.5706 31.7491 12.2729 -3.35588
54 2 11.2638 28.052 12.2729 -3.34575
58 1 13.7518 29.0512 13.2202 -3.36305
57 2 16.224 28.052 12.2729 -3.34575
62 1 18.712 29.0512 13.2202 -3.36305
12 2 19.5309 31.7491 12.2729 -3.35588
30 1 17.0489 32.7971 13.1989 -3.35702
24 1 22.0092 32.7971 13.1989 -3.35702
49 1 13.0642 26.3702 14.0965 -3.32224
39 1 18.0244 26.3702 14.0965 -3.32224
50 1 10.7715 27.4699 14.9228 -3.24077
66 1 13.71 31.1166 15.0238 -3.35135
51 1 13.5278 28.28 16.0391 -3.17138
127 1 11.3874 29.4822 16.7975 -3.15141
56 1 15.7317 27.4699 14.9228 -3.24077
55 1 18.488 28.28 16.0391 -3.17138
59 1 16.2245 30.1718 14.0473 -3.32113
61 1 18.6702 31.1166 15.0238 -3.35135
140 1 16.3476 29.4822 16.7975 -3.15141
63 1 21.1848 30.1718 14.0473 -3.32113
107 1 13.77 33.1698 16.8944 -3.32707
47 1 14.4145 35.8855 16.0439 -3.27841
25 1 14.5371 33.8235 14.1311 -3.35577
65 1 16.1909 32.1694 15.947 -3.33725
28 1 16.9856 34.8384 15.0926 -3.33399
117 1 18.7303 33.1698 16.8944 -3.32707
29 1 19.3748 35.8855 16.0439 -3.27841
111 1 16.3504 34.0841 17.913 -3.29598
27 1 19.4973 33.8235 14.1311 -3.35577
64 1 21.1512 32.1694 15.947 -3.33725
48 1 21.9458 34.8384 15.0926 -3.33399
116 1 21.3106 34.0841 17.913 -3.29598
115 1 16.7272 36.89 16.9552 -3.20499
129 1 21.6875 36.89 16.9552 -3.20499
135 1 19.1444 41.5605 17.7763 -3.14945
139 1 24.1046 41.5605 17.7763 -3.14945
114 1 14.0241 34.827 19.088 -3.27612
112 1 16.6328 35.9442 19.9097 -3.35058
113 1 18.9843 34.827 19.088 -3.27612
120 1 21.593 35.9442 19.9097 -3.35058
110 1 14.2418 36.9383 20.9525 -3.35039
123 1 18.9124 37.4891 18.2738 -3.19603
118 2 16.7407 37.988 21.829 -3.38546
124 1 18.5725 39.6608 19.9994 -3.24278
126 1 16.2302 38.6249 19.1006 -3.21742
119 1 15.9831 40.7146 20.9124 -3.28899
122 1 19.2021 36.9383 20.9525 -3.35039
128 1 23.8726 37.4891 18.2738 -3.19603
121 2 21.7009 37.988 21.829 -3.38546
125 1 21.1904 38.6249 19.1006 -3.21742
132 1 23.5327 39.6608 19.9994 -3.24278
134 1 20.9433 40.7146 20.9124 -3.28899
130 2 18.3941 41.6851 21.829 -3.31838
131 1 17.417 44.3517 20.8878 -3.3079
138 1 16.9819 42.5069 18.8067 -3.19182
133 2 23.3544 41.6851 21.829 -3.31838
136 1 19.7252 43.3119 19.9342 -3.25497
137 1 21.9421 42.5069 18.8067 -3.19182
141 2 20.0475 45.3822 21.829 -3.36263
144 1 22.3773 44.3517 20.8878 -3.3079
142 1 24.6854 43.3119 19.9342 -3.25497
143 2 25.0078 45.3822 21.829 -3.36263
