ITEM: TIMESTEP
0
ITEM: NUMBER OF ATOMS
144
ITEM: BOX BOUNDS xy xz yz pp pp pp
0.0000000000000000e+00 3.1001354557099610e+01 4.9602167291359365e+00
0.0000000000000000e+00 5.1574925321080187e+01 1.6120704369691801e+01
0.0000000000000000e+00 2.0734580741297954e+01 4.0483543531600581e+01
ITEM: ATOMS id type x y z c_peatom
70 2 0 0 0 -3.34652
82 2 1.65341 3.69713 0 -3.33929
69 2 4.96022 0 0 -3.34652
81 2 6.61362 3.69713 0 -3.33929
80 2 4.13351 4.80627 0.905608 -3.34525
86 1 4.13351 7.02454 2.71682 -3.36504
87 1 4.13351 9.24282 4.52804 -3.26308
88 1 6.61362 8.13368 3.62243 -3.39498
93 1 6.61362 5.9154 1.81122 -3.33503
94 2 5.78692 8.50339 0.905608 -3.34672
95 2 8.26703 7.39425 0 -3.33929
76 1 11.5738 5.9154 1.81122 -3.33503
89 1 11.5738 8.13368 3.62243 -3.39498
91 2 9.09373 4.80627 0.905608 -3.34525
92 1 9.09373 7.02454 2.71682 -3.36504
96 2 13.2272 7.39425 0 -3.33929
98 1 9.09373 9.24282 4.52804 -3.26308
104 2 10.7471 8.50339 0.905608 -3.34672
68 2 7.44033 12.2005 0.905608 -3.35495
100 1 5.78692 10.7217 2.71682 -3.35588
101 1 5.78692 12.9399 4.52804 -3.08442
102 1 8.26703 11.8308 3.62243 -3.33864
106 1 8.26703 9.61253 1.81122 -3.36026
109 1 8.26703 14.0491 5.18365 -3.06976
77 2 12.4005 12.2005 0.905608 -3.35495
79 1 9.92043 13.3097 1.81122 -3.35267
90 1 13.2272 9.61253 1.81122 -3.36026
97 1 13.2272 14.0491 5.18365 -3.06976
103 1 13.2272 11.8308 3.62243 -3.33864
105 1 10.7471 10.7217 2.71682 -3.35588
108 1 10.7471 12.9399 4.52804 -3.08442
67 1 14.8807 13.3097 1.81122 -3.35267
72 1 7.44033 14.4188 2.71682 -3.35866
73 1 7.44033 16.6371 4.52804 -3.27245
74 1 9.92043 15.5279 3.62243 -3.27297
78 1 12.4005 14.4188 2.71682 -3.35866
84 1 12.4005 16.6371 4.52804 -3.27245
75 1 14.8807 15.5279 3.62243 -3.27297
99 1 6.61362 10.352 5.18365 0.0825778
83 1 11.5738 10.352 5.18365 0.0825778
7 1 8.06035 18.0235 8.55608 -3.36853
9 1 8.06035 15.8052 6.74486 -3.15246
1 1 10.5405 14.6961 5.83925 -2.94098
3 1 13.0206 15.8052 6.74486 -3.15246
5 1 8.88705 18.3932 5.83925 -1.24231
6 1 10.5405 16.9144 7.65047 -3.38066
13 1 13.0206 18.0235 8.55608 -3.36853
85 1 9.92043 17.7462 5.18365 -1.33128
2 1 15.5007 14.6961 5.83925 -2.94098
4 1 15.5007 16.9144 7.65047 -3.38066
14 1 13.8473 18.3932 5.83925 -1.24231
71 1 14.8807 17.7462 5.18365 -1.33128
8 2 10.5405 19.1326 9.46168 -3.35125
15 1 11.3672 19.5023 6.74486 -3.32742
17 1 8.88705 20.6115 7.65047 -3.38301
34 1 11.3672 21.7206 8.55608 -3.36261
35 1 12.1939 22.0903 5.83925 -0.0471335
10 2 15.5007 19.1326 9.46168 -3.35125
16 1 13.8473 20.6115 7.65047 -3.38301
18 1 16.3274 21.7206 8.55608 -3.36261
20 1 16.3274 19.5023 6.74486 -3.32742
21 1 17.1541 22.0903 5.83925 -0.0471335
31 2 13.8473 22.8298 9.46168 -3.32088
44 1 14.674 23.1995 6.74486 -3.38299
19 2 18.8075 22.8298 9.46168 -3.32088
22 1 19.6342 23.1995 6.74486 -3.38299
36 1 12.1939 24.3086 7.65047 -3.40816
53 2 12.1939 26.5269 9.46168 -3.33789
41 1 17.1541 24.3086 7.65047 -3.40816
42 1 14.674 25.4177 8.55608 -3.35556
43 2 17.1541 26.5269 9.46168 -3.33789
46 1 19.6342 25.4177 8.55608 -3.35556
32 2 11.3672 23.9389 10.3673 -3.33499
52 1 11.3672 26.1572 12.1785 -3.35556
33 2 13.8473 25.048 11.2729 -3.33789
38 1 16.3274 26.1572 12.1785 -3.35556
40 2 16.3274 23.9389 10.3673 -3.33499
49 1 13.8473 27.2663 13.0841 -3.40816
60 2 14.674 27.636 10.3673 -3.33499
37 2 18.8075 25.048 11.2729 -3.33789
39 1 18.8075 27.2663 13.0841 -3.40816
45 2 19.6342 27.636 10.3673 -3.33499
50 1 11.3672 28.3755 13.9897 -3.38299
54 2 12.1939 28.7452 11.2729 -3.32088
23 2 15.5007 32.4423 11.2729 -3.35125
51 1 13.8473 29.4846 14.8953 -0.0471335
56 1 16.3274 28.3755 13.9897 -3.38299
57 2 17.1541 28.7452 11.2729 -3.32088
58 1 14.674 29.8543 12.1785 -3.36261
59 1 17.1541 30.9634 13.0841 -3.38301
66 1 14.674 32.0726 13.9897 -3.32742
11 2 17.9808 31.3332 10.3673 -3.33993
12 2 20.4609 32.4423 11.2729 -3.35125
55 1 18.8075 29.4846 14.8953 -0.0471335
61 1 19.6342 32.0726 13.9897 -3.32742
62 1 19.6342 29.8543 12.1785 -3.36261
63 1 22.1143 30.9634 13.0841 -3.38301
26 2 22.941 31.3332 10.3673 -3.33993
25 1 15.5007 34.6606 13.0841 -3.38066
47 1 15.5007 36.8788 14.8953 -2.94098
65 1 17.1541 33.1817 14.8953 -1.24231
27 1 20.4609 34.6606 13.0841 -3.38066
28 1 17.9808 35.7697 13.9897 -3.15246
29 1 20.4609 36.8788 14.8953 -2.94098
30 1 17.9808 33.5514 12.1785 -3.36853
64 1 22.1143 33.1817 14.8953 -1.24231
24 1 22.941 33.5514 12.1785 -3.36853
48 1 22.941 35.7697 13.9897 -3.15246
107 1 16.1207 33.8287 15.5509 -1.33128
114 1 16.1207 36.047 17.1122 -3.27297
111 1 18.6008 34.9379 16.2065 -3.27245
112 1 18.6008 37.1561 18.0178 -3.35866
113 1 21.0809 36.047 17.1122 -3.27297
117 1 21.0809 33.8287 15.5509 -1.33128
116 1 23.561 34.9379 16.2065 -3.27245
120 1 23.561 37.1561 18.0178 -3.35866
110 1 16.1207 38.2653 18.9234 -3.35267
115 1 17.7741 37.5258 15.5509 -3.06976
118 2 18.6008 39.3744 19.829 -3.35495
119 1 17.7741 41.9624 18.9234 -3.36026
122 1 21.0809 38.2653 18.9234 -3.35267
123 1 20.2542 38.635 16.2065 -3.08442
124 1 20.2542 40.8533 18.0178 -3.35588
126 1 17.7741 39.7441 17.1122 -3.33864
127 1 19.4275 41.223 15.5509 0.0825778
121 2 23.561 39.3744 19.829 -3.35495
125 1 22.7343 39.7441 17.1122 -3.33864
128 1 25.2144 38.635 16.2065 -3.08442
129 1 22.7343 37.5258 15.5509 -3.06976
132 1 25.2144 40.8533 18.0178 -3.35588
134 1 22.7343 41.9624 18.9234 -3.36026
140 1 24.3877 41.223 15.5509 0.0825778
130 2 20.2542 43.0715 19.829 -3.34672
131 1 19.4275 45.6595 18.9234 -3.33503
135 1 21.9076 42.3321 16.2065 -3.26308
136 1 21.9076 44.5504 18.0178 -3.36504
138 1 19.4275 43.4412 17.1122 -3.39498
141 2 21.9076 46.7687 19.829 -3.34525
133 2 25.2144 43.0715 19.829 -3.34672
137 1 24.3877 43.4412 17.1122 -3.39498
144 1 24.3877 45.6595 18.9234 -3.33503
139 1 26.8678 42.3321 16.2065 -3.26308
142 1 26.8678 44.5504 18.0178 -3.36504
143 2 26.8678 46.7687 19.829 -3.34525
