#Lammps coordinate file for CSL - Axis: [1 1 1]  Angle: (1, 3) -> 59.99999999999999  Plane indices: [0 1 1]  z-position: [5.4336451853244885 16.300935555973464]  Repeats: 1 1 (3, 3) (black, white)  Fixed: 2.228  Boundary equiv: True
144 atoms

2 atom types

0.0 9.920433458271871 xlo xhi
0.0 11.091381789479609 ylo yhi
0.0 21.734580741297954 zlo zhi
4.9602167291359365 13.020568913981837 41.86996625528553 xy xz yz

Atoms

1 1 8.990392821558885 15.38929223290296 6.339252716211904
2 1 13.950609550694818 15.38929223290296 6.339252716211904
3 1 11.470501186126853 16.49843041185092 7.24486024709932
4 1 13.950609550694818 17.607568590798884 8.150467777986734
5 1 17.25742070345211 19.08641949606283 6.339252716211904
6 1 8.990392821558885 17.607568590798884 8.150467777986734
7 1 6.5102844569909175 18.716706769746843 9.05607530887415
8 2 8.990392821558885 19.825844948694805 9.961682839761563
9 1 6.5102844569909175 16.498430411850922 7.244860247099319
10 2 13.950609550694818 19.825844948694805 9.961682839761563
11 2 11.470501186126853 20.934983127642766 10.867290370648979
12 2 13.95060955069482 22.044121306590725 11.772897901536393
13 1 11.470501186126853 18.716706769746843 9.05607530887415
14 1 12.297203974316172 19.08641949606283 6.339252716211904
15 1 9.817095609748208 20.19555767501079 7.244860247099319
16 1 12.297203974316174 21.304695853958755 8.150467777986734
17 1 17.25742070345211 21.30469585395875 8.150467777986734
18 1 14.777312338884144 22.413834032906713 9.05607530887415
19 2 17.257420703452112 23.522972211854672 9.961682839761563
20 1 14.77731233888414 20.19555767501079 7.24486024709932
21 1 15.604015127073467 22.783546759222702 6.339252716211903
22 1 18.084123491641435 23.89268493817066 7.244860247099318
23 2 8.990392821558885 22.044121306590725 11.772897901536393
24 1 6.510284456990918 23.15325948553869 12.678505432423808
25 1 8.990392821558885 24.26239766448665 13.584112963311222
26 2 6.510284456990918 20.934983127642766 10.867290370648979
27 1 13.950609550694821 24.26239766448665 13.584112963311222
28 1 11.470501186126853 25.371535843434607 14.489720494198638
29 1 13.950609550694821 26.480674022382573 15.395328025086053
30 1 11.470501186126853 23.15325948553869 12.678505432423808
31 2 12.297203974316176 23.522972211854675 9.961682839761563
32 2 9.817095609748208 24.632110390802637 10.867290370648979
33 2 12.297203974316176 25.741248569750596 11.772897901536393
34 1 9.817095609748208 22.413834032906713 9.05607530887415
35 1 10.64379839793753 22.783546759222702 6.339252716211903
36 1 10.64379839793753 25.001823117118626 8.150467777986734
37 2 17.257420703452112 25.741248569750596 11.772897901536393
38 1 14.777312338884144 26.85038674869856 12.678505432423808
39 1 17.257420703452112 27.95952492764652 13.584112963311224
40 2 14.777312338884144 24.632110390802637 10.867290370648979
41 1 15.604015127073467 25.00182311711862 8.150467777986734
42 1 13.123906762505499 26.110961296066584 9.05607530887415
43 2 15.604015127073467 27.220099475014543 9.961682839761563
44 1 13.123906762505499 23.89268493817066 7.244860247099319
45 2 18.084123491641435 28.329237653962508 10.867290370648977
46 1 18.084123491641435 26.110961296066584 9.05607530887415
47 1 8.990392821558887 26.480674022382573 15.395328025086052
48 1 6.510284456990919 25.371535843434614 14.489720494198638
49 1 12.297203974316176 27.95952492764652 13.584112963311222
50 1 9.817095609748211 29.068663106594478 14.489720494198638
51 1 12.297203974316176 30.177801285542444 15.395328025086053
52 1 9.81709560974821 26.85038674869856 12.678505432423808
53 2 10.64379839793753 27.220099475014543 9.961682839761563
54 2 10.64379839793753 29.438375832910467 11.772897901536393
55 1 17.257420703452112 30.177801285542444 15.395328025086052
56 1 14.777312338884144 29.068663106594478 14.48972049419864
57 2 15.604015127073467 29.438375832910467 11.772897901536393
58 1 13.123906762505499 30.547514011858432 12.678505432423808
59 1 15.604015127073467 31.65665219080639 13.584112963311224
60 2 13.123906762505499 28.329237653962508 10.867290370648979
61 1 18.08412349164143 32.76579036975435 14.489720494198636
62 1 18.08412349164143 30.547514011858425 12.678505432423808
63 1 10.64379839793753 31.65665219080639 13.58411296331122
64 1 10.64379839793753 33.874928548702314 15.395328025086052
65 1 15.604015127073467 33.874928548702314 15.39532802508605
66 1 13.123906762505499 32.76579036975435 14.489720494198638
67 1 0.0 2.218276357895922 1.8112150617748295
68 2 2.4801083645679673 1.109138178947961 0.9056075308874146
69 2 4.960216729135936 0.0 -1.9455644930253686e-16
70 2 0.0 0.0 0.0
71 1 8.881784197001252e-16 6.654829073687768 5.4336451853244885
72 1 2.4801083645679673 3.327414536843884 2.7168225926622442
73 1 2.4801083645679682 5.545690894739806 4.528037654437074
74 1 4.960216729135936 4.436552715791845 3.622430123549659
75 1 8.881784197001252e-16 4.436552715791845 3.622430123549659
76 1 1.6534055763786455 5.915403621055794 1.811215061774829
77 2 7.440325093703903 1.109138178947961 0.9056075308874145
78 1 7.440325093703903 3.327414536843884 2.7168225926622442
79 1 4.960216729135936 2.218276357895922 1.8112150617748293
80 2 4.133513940946613 4.806265442107832 0.9056075308874143
81 2 6.61362230551458 3.6971272631598704 -5.836693479076105e-16
82 2 1.6534055763786455 3.697127263159871 -3.8911289860507373e-16
83 1 1.6534055763786455 10.351956336847639 5.4336451853244885
84 1 7.440325093703903 5.545690894739806 4.528037654437074
85 1 4.960216729135936 6.654829073687768 5.4336451853244885
86 1 4.133513940946613 7.024541800003755 2.716822592662244
87 1 4.133513940946613 9.242818157899677 4.528037654437074
88 1 6.61362230551458 8.133679978951715 3.6224301235496585
89 1 1.6534055763786455 8.133679978951717 3.6224301235496585
90 1 3.3068111527572905 9.612530884215664 1.8112150617748288
91 2 9.093730670082548 4.806265442107832 0.9056075308874142
92 1 9.093730670082547 7.024541800003755 2.716822592662244
93 1 6.61362230551458 5.915403621055793 1.8112150617748288
94 2 5.7869195173252574 8.503392705267704 0.9056075308874139
95 2 8.267027881893226 7.394254526319742 -9.727822465126844e-16
96 2 3.3068111527572905 7.394254526319742 -7.782257972101475e-16
97 1 3.306811152757291 14.04908360000751 5.433645185324488
98 1 9.093730670082547 9.242818157899677 4.528037654437074
99 1 6.613622305514581 10.351956336847639 5.4336451853244885
100 1 5.786919517325258 10.721669063163626 2.7168225926622434
101 1 5.786919517325258 12.939945421059548 4.528037654437073
102 1 8.267027881893226 11.830807242111586 3.622430123549658
103 1 3.306811152757291 11.830807242111588 3.622430123549658
104 2 10.747136246461192 8.503392705267704 0.9056075308874137
105 1 10.747136246461192 10.721669063163626 2.7168225926622434
106 1 8.267027881893226 9.612530884215664 1.8112150617748286
107 1 13.020568913981833 35.21513718159777 16.300935555973467
108 1 10.747136246461192 12.939945421059548 4.528037654437073
109 1 8.267027881893226 14.04908360000751 5.433645185324488
110 1 13.020568913981833 39.65168989738961 19.923365679523123
111 1 15.500677278549801 36.32427536054573 17.20654308686088
112 1 15.500677278549801 38.54255171844165 19.01775814863571
113 1 17.98078564311777 37.43341353949369 18.112150617748295
114 1 13.020568913981833 37.43341353949369 18.112150617748295
115 1 14.673974490360479 38.91226444475764 16.300935555973464
116 1 20.460894007685734 36.32427536054573 17.20654308686088
117 1 17.98078564311777 35.21513718159777 16.300935555973464
118 2 15.500677278549801 40.760828076337575 20.82897321041054
119 1 14.673974490360479 43.34881716054948 19.923365679523123
120 1 20.460894007685734 38.54255171844165 19.017758148635707
121 2 20.460894007685738 40.760828076337575 20.82897321041054
122 1 17.98078564311777 39.65168989738961 19.923365679523126
123 1 17.154082854928447 40.0214026237056 17.20654308686088
124 1 17.154082854928447 42.23967898160152 19.01775814863571
125 1 19.634191219496415 41.13054080265356 18.112150617748295
126 1 14.673974490360479 41.13054080265356 18.112150617748295
127 1 16.327380066739124 42.60939170791751 16.300935555973464
128 1 22.114299584064383 40.0214026237056 17.20654308686088
129 1 19.634191219496415 38.91226444475764 16.300935555973464
130 2 17.154082854928447 44.457955339497445 20.82897321041054
131 1 16.327380066739124 47.04594442370935 19.923365679523123
132 1 22.114299584064383 42.23967898160152 19.017758148635707
133 2 22.114299584064383 44.457955339497445 20.82897321041054
134 1 19.634191219496415 43.34881716054948 19.923365679523126
135 1 18.807488431307092 43.71852988686547 17.20654308686088
136 1 18.807488431307092 45.93680624476139 19.01775814863571
137 1 21.28759679587506 44.827668065813434 18.112150617748295
138 1 16.327380066739124 44.827668065813434 18.112150617748295
139 1 23.76770516044303 43.71852988686547 17.20654308686088
140 1 21.28759679587506 42.60939170791751 16.300935555973464
141 2 18.807488431307092 48.155082602657316 20.82897321041054
142 1 23.76770516044303 45.93680624476139 19.017758148635707
143 2 23.76770516044303 48.155082602657316 20.82897321041054
144 1 21.28759679587506 47.04594442370935 19.923365679523126
