#Lammps coordinate file for CSL - Axis: [1 1 1]  Angle: (1, 3) -> 59.99999999999999  Plane indices: [0 1 1]  z-position: [5.9336451853244885 17.800935555973464]  Repeats: 1 1 (3, 3) (black, white)  Fixed: 2.228  Boundary equiv: True
144 atoms

2 atom types

0.0 9.920433458271871 xlo xhi
0.0 11.091381789479609 ylo yhi
0.0 23.734580741297954 zlo zhi
4.9602167291359365 24.181056554537694 41.86996625528553 xy xz yz

Atoms

1 1 14.570636641836813 15.38929223290296 7.339252716211904
2 1 19.530853370972746 15.389292232902958 7.339252716211904
3 1 17.05074500640478 16.49843041185092 8.24486024709932
4 1 19.53085337097275 17.60756859079888 9.150467777986734
5 1 22.83766452373004 19.086419496062828 7.339252716211904
6 1 14.570636641836813 17.60756859079888 9.150467777986734
7 1 12.090528277268847 18.716706769746843 10.05607530887415
8 2 14.570636641836813 19.825844948694805 10.961682839761563
9 1 12.090528277268847 16.498430411850922 8.244860247099318
10 2 19.53085337097275 19.825844948694805 10.961682839761563
11 2 17.05074500640478 20.934983127642763 11.867290370648979
12 2 19.53085337097275 22.044121306590725 12.772897901536393
13 1 17.05074500640478 18.716706769746843 10.05607530887415
14 1 17.877447794594104 19.086419496062828 7.339252716211904
15 1 15.397339430026136 20.19555767501079 8.244860247099318
16 1 17.877447794594104 21.30469585395875 9.150467777986734
17 1 22.83766452373004 21.30469585395875 9.150467777986734
18 1 20.357556159162073 22.413834032906713 10.05607530887415
19 2 22.83766452373004 23.522972211854672 10.961682839761563
20 1 20.357556159162073 20.19555767501079 8.24486024709932
21 1 21.184258947351395 22.7835467592227 7.339252716211902
22 1 23.664367311919364 23.89268493817066 8.244860247099318
23 2 14.570636641836815 22.044121306590725 12.772897901536393
24 1 12.090528277268849 23.153259485538687 13.678505432423808
25 1 14.570636641836815 24.26239766448665 14.584112963311222
26 2 12.090528277268849 20.934983127642766 11.867290370648979
27 1 19.53085337097275 24.26239766448665 14.584112963311222
28 1 17.05074500640478 25.371535843434607 15.489720494198638
29 1 19.53085337097275 26.48067402238257 16.39532802508605
30 1 17.05074500640478 23.153259485538687 13.678505432423808
31 2 17.877447794594104 23.522972211854675 10.961682839761563
32 2 15.397339430026138 24.632110390802634 11.867290370648979
33 2 17.877447794594104 25.741248569750596 12.772897901536393
34 1 15.397339430026138 22.413834032906713 10.05607530887415
35 1 16.22404221821546 22.7835467592227 7.339252716211902
36 1 16.22404221821546 25.001823117118622 9.150467777986734
37 2 22.83766452373004 25.741248569750596 12.772897901536393
38 1 20.357556159162073 26.850386748698558 13.678505432423808
39 1 22.83766452373004 27.95952492764652 14.584112963311224
40 2 20.357556159162073 24.632110390802634 11.867290370648979
41 1 21.184258947351395 25.00182311711862 9.150467777986734
42 1 18.704150582783427 26.110961296066584 10.05607530887415
43 2 21.184258947351395 27.220099475014543 10.961682839761563
44 1 18.704150582783427 23.89268493817066 8.244860247099318
45 2 23.664367311919364 28.329237653962505 11.867290370648977
46 1 23.664367311919364 26.11096129606658 10.05607530887415
47 1 14.570636641836817 26.480674022382573 16.39532802508605
48 1 12.090528277268849 25.37153584343461 15.489720494198638
49 1 17.877447794594104 27.95952492764652 14.584112963311222
50 1 15.39733943002614 29.068663106594478 15.489720494198638
51 1 17.877447794594104 30.17780128554244 16.39532802508605
52 1 15.39733943002614 26.850386748698558 13.678505432423808
53 2 16.22404221821546 27.220099475014543 10.961682839761563
54 2 16.22404221821546 29.438375832910467 12.772897901536393
55 1 22.83766452373004 30.17780128554244 16.39532802508605
56 1 20.357556159162073 29.068663106594478 15.48972049419864
57 2 21.184258947351395 29.438375832910467 12.772897901536393
58 1 18.704150582783427 30.54751401185843 13.678505432423808
59 1 21.184258947351395 31.65665219080639 14.584112963311224
60 2 18.704150582783427 28.329237653962505 11.867290370648979
61 1 23.664367311919364 32.76579036975435 15.489720494198636
62 1 23.66436731191936 30.547514011858425 13.678505432423808
63 1 16.22404221821546 31.65665219080639 14.58411296331122
64 1 16.22404221821546 33.874928548702314 16.39532802508605
65 1 21.184258947351395 33.874928548702314 16.395328025086048
66 1 18.704150582783427 32.76579036975435 15.489720494198638
67 1 0.0 2.218276357895923 1.8112150617748295
68 2 2.4801083645679682 1.109138178947961 0.9056075308874146
69 2 4.960216729135936 -8.881784197001252e-16 -2.220446049250313e-16
70 2 0.0 0.0 0.0
71 1 0.0 6.654829073687768 5.9336451853244885
72 1 2.4801083645679682 3.327414536843884 2.7168225926622442
73 1 2.4801083645679682 5.545690894739806 4.528037654437075
74 1 4.960216729135936 4.436552715791845 3.622430123549659
75 1 0.0 4.436552715791845 3.622430123549659
76 1 1.6534055763786455 5.915403621055794 1.811215061774829
77 2 7.440325093703903 1.109138178947961 0.9056075308874145
78 1 7.440325093703903 3.327414536843883 2.7168225926622442
79 1 4.960216729135936 2.218276357895922 1.8112150617748293
80 2 4.133513940946613 4.806265442107832 0.9056075308874143
81 2 6.61362230551458 3.6971272631598704 -6.661338147750939e-16
82 2 1.6534055763786455 3.697127263159871 -3.3306690738754696e-16
83 1 1.6534055763786455 10.351956336847639 5.9336451853244885
84 1 7.440325093703903 5.545690894739806 4.528037654437075
85 1 4.960216729135936 6.654829073687768 5.9336451853244885
86 1 4.133513940946613 7.024541800003755 2.716822592662244
87 1 4.133513940946613 9.242818157899677 4.528037654437075
88 1 6.61362230551458 8.133679978951715 3.6224301235496585
89 1 1.6534055763786455 8.133679978951717 3.6224301235496585
90 1 3.306811152757291 9.612530884215664 1.8112150617748288
91 2 9.093730670082548 4.806265442107832 0.9056075308874142
92 1 9.093730670082547 7.024541800003755 2.716822592662244
93 1 6.61362230551458 5.915403621055793 1.8112150617748288
94 2 5.7869195173252574 8.503392705267704 0.9056075308874139
95 2 8.267027881893226 7.394254526319742 -8.881784197001252e-16
96 2 3.306811152757291 7.394254526319742 -6.661338147750939e-16
97 1 3.306811152757291 14.04908360000751 5.9336451853244885
98 1 9.093730670082547 9.242818157899677 4.528037654437075
99 1 6.613622305514581 10.351956336847639 5.9336451853244885
100 1 5.786919517325258 10.721669063163626 2.7168225926622434
101 1 5.786919517325258 12.939945421059548 4.528037654437073
102 1 8.267027881893226 11.830807242111586 3.622430123549658
103 1 3.306811152757291 11.830807242111588 3.622430123549658
104 2 10.747136246461192 8.503392705267704 0.9056075308874137
105 1 10.747136246461192 10.721669063163626 2.7168225926622434
106 1 8.267027881893226 9.612530884215664 1.8112150617748286
107 1 24.18105655453769 35.21513718159777 17.800935555973467
108 1 10.747136246461192 12.939945421059548 4.528037654437073
109 1 8.267027881893226 14.04908360000751 5.9336451853244885
110 1 24.18105655453769 39.65168989738961 21.923365679523123
111 1 26.66116491910566 36.32427536054573 19.20654308686088
112 1 26.66116491910566 38.54255171844165 21.01775814863571
113 1 29.141273283673627 37.43341353949369 20.112150617748295
114 1 24.18105655453769 37.43341353949369 20.112150617748295
115 1 25.834462130916336 38.91226444475764 17.800935555973464
116 1 31.621381648241595 36.32427536054573 19.20654308686088
117 1 29.141273283673627 35.21513718159777 17.800935555973464
118 2 26.66116491910566 40.760828076337575 22.82897321041054
119 1 25.834462130916336 43.34881716054948 21.923365679523123
120 1 31.621381648241595 38.54255171844165 21.017758148635707
121 2 31.621381648241595 40.760828076337575 22.82897321041054
122 1 29.141273283673627 39.65168989738961 21.923365679523126
123 1 28.314570495484304 40.0214026237056 19.20654308686088
124 1 28.314570495484304 42.23967898160152 21.01775814863571
125 1 30.794678860052272 41.13054080265356 20.112150617748295
126 1 25.834462130916336 41.13054080265356 20.112150617748295
127 1 27.48786770729498 42.60939170791751 17.800935555973464
128 1 33.27478722462024 40.0214026237056 19.20654308686088
129 1 30.794678860052272 38.91226444475764 17.800935555973464
130 2 28.314570495484304 44.457955339497445 22.82897321041054
131 1 27.48786770729498 47.04594442370935 21.923365679523123
132 1 33.27478722462024 42.23967898160152 21.017758148635707
133 2 33.27478722462024 44.457955339497445 22.82897321041054
134 1 30.794678860052272 43.34881716054948 21.923365679523126
135 1 29.96797607186295 43.71852988686547 19.20654308686088
136 1 29.96797607186295 45.93680624476139 21.01775814863571
137 1 32.44808443643092 44.827668065813434 20.112150617748295
138 1 27.48786770729498 44.827668065813434 20.112150617748295
139 1 34.928192800998886 43.71852988686547 19.20654308686088
140 1 32.44808443643092 42.60939170791751 17.800935555973464
141 2 29.96797607186295 48.155082602657316 22.82897321041054
142 1 34.928192800998886 45.93680624476139 21.017758148635707
143 2 34.928192800998886 48.155082602657316 22.82897321041054
144 1 32.44808443643092 47.04594442370935 21.923365679523126
