ITEM: TIMESTEP
0
ITEM: NUMBER OF ATOMS
144
ITEM: BOX BOUNDS xy xz yz pp pp pp
0.0000000000000000e+00 3.4721517103951555e+01 4.9602167291359365e+00
0.0000000000000000e+00 4.3256388978970477e+01 1.9840866916543746e+01
0.0000000000000000e+00 1.9734580741297954e+01 3.2165007189490872e+01
ITEM: ATOMS id type x y z c_peatom
69 2 4.96022 0 0 -3.31494
70 2 0 0 0 -3.31494
82 2 1.65341 3.69713 0 -3.30759
81 2 6.61362 3.69713 0 -3.30759
80 2 4.13351 4.80627 0.905608 -3.33778
86 1 4.13351 7.02454 2.71682 -3.26155
88 1 6.61362 8.13368 3.62243 -3.37662
91 2 9.09373 4.80627 0.905608 -3.33778
92 1 9.09373 7.02454 2.71682 -3.26155
93 1 6.61362 5.9154 1.81122 -3.35962
94 2 5.78692 8.50339 0.905608 -3.32942
95 2 8.26703 7.39425 0 -3.30759
98 1 9.09373 9.24282 4.52804 -3.16645
76 1 11.5738 5.9154 1.81122 -3.35962
87 1 14.0539 9.24282 4.52804 -3.16645
89 1 11.5738 8.13368 3.62243 -3.37662
96 2 13.2272 7.39425 0 -3.30759
104 2 10.7471 8.50339 0.905608 -3.32942
68 2 7.44033 12.2005 0.905608 -3.34523
79 1 9.92043 13.3097 1.81122 -3.34545
100 1 5.78692 10.7217 2.71682 -3.3201
102 1 8.26703 11.8308 3.62243 -3.19194
106 1 8.26703 9.61253 1.81122 -3.35764
109 1 8.26703 14.0491 4.93365 -2.28746
67 1 14.8807 13.3097 1.81122 -3.34545
77 2 12.4005 12.2005 0.905608 -3.34523
90 1 13.2272 9.61253 1.81122 -3.35764
97 1 13.2272 14.0491 4.93365 -2.28746
103 1 13.2272 11.8308 3.62243 -3.19194
105 1 10.7471 10.7217 2.71682 -3.3201
108 1 10.7471 12.9399 4.52804 -1.83534
101 1 15.7074 12.9399 4.52804 -1.83534
72 1 7.44033 14.4188 2.71682 -3.30197
74 1 9.92043 15.5279 3.62243 -3.21663
75 1 14.8807 15.5279 3.62243 -3.21663
78 1 12.4005 14.4188 2.71682 -3.30197
84 1 12.4005 16.6371 4.52804 -3.08327
73 1 17.3608 16.6371 4.52804 -3.08327
2 1 7.44033 10.5368 5.33925 1.4088
7 1 9.92043 13.8642 8.05608 -3.34864
9 1 9.92043 11.646 6.24486 -3.2216
99 1 6.61362 10.352 4.93365 1.40076
1 1 12.4005 10.5368 5.33925 1.4088
3 1 14.8807 11.646 6.24486 -3.2216
5 1 10.7471 14.2339 5.33925 -1.68446
6 1 12.4005 12.7551 7.15047 -3.44741
13 1 14.8807 13.8642 8.05608 -3.34864
83 1 11.5738 10.352 4.93365 1.40076
4 1 17.3608 12.7551 7.15047 -3.44741
14 1 15.7074 14.2339 5.33925 -1.68446
85 1 9.92043 17.7462 4.93365 1.40539
8 2 12.4005 14.9734 8.96168 -3.33128
15 1 13.2272 15.3431 6.24486 -2.55164
17 1 10.7471 16.4522 7.15047 -3.44416
22 1 11.5738 19.0402 6.24486 -3.37505
34 1 13.2272 17.5614 8.05608 -3.36973
35 1 14.0539 17.9311 5.33925 1.31894
71 1 14.8807 17.7462 4.93365 1.40539
10 2 17.3608 14.9734 8.96168 -3.33128
16 1 15.7074 16.4522 7.15047 -3.44416
18 1 18.1875 17.5614 8.05608 -3.36973
20 1 18.1875 15.3431 6.24486 -2.55164
21 1 19.0142 17.9311 5.33925 1.31894
31 2 15.7074 18.6705 8.96168 -3.32371
44 1 16.5341 19.0402 6.24486 -3.37505
19 2 20.6676 18.6705 8.96168 -3.32371
36 1 14.0539 20.1493 7.15047 -3.39519
53 2 14.0539 22.3676 8.96168 -3.3108
41 1 19.0142 20.1493 7.15047 -3.39519
42 1 16.5341 21.2585 8.05608 -3.3936
43 2 19.0142 22.3676 8.96168 -3.3108
46 1 21.4943 21.2585 8.05608 -3.3936
32 2 13.2272 19.7796 9.86729 -3.29749
52 1 13.2272 21.9979 11.6785 -3.3936
33 2 15.7074 20.8888 10.7729 -3.3108
38 1 18.1875 21.9979 11.6785 -3.3936
40 2 18.1875 19.7796 9.86729 -3.29749
49 1 15.7074 23.107 12.5841 -3.39519
60 2 16.5341 23.4768 9.86729 -3.29749
37 2 20.6676 20.8888 10.7729 -3.3108
39 1 20.6676 23.107 12.5841 -3.39519
45 2 21.4943 23.4768 9.86729 -3.29749
54 2 14.0539 24.5859 10.7729 -3.32371
11 2 19.8409 27.1739 9.86729 -3.30559
23 2 17.3608 28.283 10.7729 -3.33128
51 1 15.7074 25.3253 14.3953 1.31894
56 1 18.1875 24.2162 13.4897 -3.37505
57 2 19.0142 24.5859 10.7729 -3.32371
58 1 16.5341 25.695 11.6785 -3.36973
59 1 19.0142 26.8042 12.5841 -3.44416
66 1 16.5341 27.9133 13.4897 -2.55164
12 2 22.321 28.283 10.7729 -3.33128
26 2 24.8011 27.1739 9.86729 -3.30559
50 1 23.1477 24.2162 13.4897 -3.37505
55 1 20.6676 25.3253 14.3953 1.31894
61 1 21.4943 27.9133 13.4897 -2.55164
62 1 21.4943 25.695 11.6785 -3.36973
63 1 23.9744 26.8042 12.5841 -3.44416
117 1 24.8011 25.5102 14.8009 1.40539
25 1 17.3608 30.5013 12.5841 -3.44741
28 1 19.8409 31.6104 13.4897 -3.2216
30 1 19.8409 29.3922 11.6785 -3.34864
65 1 19.0142 29.0224 14.3953 -1.68446
24 1 24.8011 29.3922 11.6785 -3.34864
27 1 22.321 30.5013 12.5841 -3.44741
29 1 22.321 32.7196 14.3953 1.4088
64 1 23.9744 29.0224 14.3953 -1.68446
115 1 21.4943 29.2073 14.8009 -2.28746
127 1 23.1477 32.9044 14.8009 1.40076
47 1 27.2812 32.7196 14.3953 1.4088
48 1 24.8011 31.6104 13.4897 -3.2216
129 1 26.4545 29.2073 14.8009 -2.28746
140 1 28.1079 32.9044 14.8009 1.40076
107 1 19.8409 25.5102 14.8009 1.40539
114 1 19.8409 27.7285 16.1122 -3.21663
116 1 17.3608 26.6193 15.2065 -3.08327
111 1 22.321 26.6193 15.2065 -3.08327
113 1 24.8011 27.7285 16.1122 -3.21663
110 1 19.8409 29.9467 17.9234 -3.34545
128 1 19.0142 30.3164 15.2065 -1.83534
112 1 22.321 28.8376 17.0178 -3.30197
118 2 22.321 31.0559 18.829 -3.34523
122 1 24.8011 29.9467 17.9234 -3.34545
123 1 23.9744 30.3164 15.2065 -1.83534
124 1 23.9744 32.5347 17.0178 -3.3201
126 1 21.4943 31.4256 16.1122 -3.19194
120 1 27.2812 28.8376 17.0178 -3.30197
121 2 27.2812 31.0559 18.829 -3.34523
125 1 26.4545 31.4256 16.1122 -3.19194
132 1 28.9346 32.5347 17.0178 -3.3201
119 1 21.4943 33.6439 17.9234 -3.35764
130 2 23.9744 34.753 18.829 -3.32942
131 1 23.1477 37.341 17.9234 -3.35962
138 1 23.1477 35.1227 16.1122 -3.37662
139 1 20.6676 34.0136 15.2065 -3.16645
133 2 28.9346 34.753 18.829 -3.32942
134 1 26.4545 33.6439 17.9234 -3.35764
135 1 25.6278 34.0136 15.2065 -3.16645
136 1 25.6278 36.2318 17.0178 -3.26155
137 1 28.1079 35.1227 16.1122 -3.37662
144 1 28.1079 37.341 17.9234 -3.35962
142 1 30.588 36.2318 17.0178 -3.26155
141 2 25.6278 38.4501 18.829 -3.33778
143 2 30.588 38.4501 18.829 -3.33778
