LAMMPS (29 Aug 2024 - Update 2)
#---------------------------------------------------------------------------------------------------
# Initilise important features of simulation
#---------------------------------------------------------------------------------------------------
units 		metal	# Use metals units (Ang, ps, eV, bar, etc.)
dimension 	3		# Run the simulation in three dimensions
boundary 	p p p	# Use periodic boundaries in all three dimensions
atom_style 	atomic	#
#box tilt large		# Allow larger than normal tilt factors

variable T_start equal 600
variable T_end equal 200
variable tstep equal 0.002
timestep ${tstep}
timestep 0.002

read_data   lammps.txt	# Read in atom coordinates from a file
Reading data file ...
  triclinic box = (0 0 0) to (9.9204335 11.091382 19.734581) with tilt (4.9602167 19.840867 32.165007)
WARNING: Triclinic box skew is large. LAMMPS will run inefficiently. (src/domain.cpp:221)
  1 by 1 by 1 MPI processor grid
  reading atoms ...
  144 atoms
  read_data CPU = 0.000 seconds

#---------------------------------------------------------------------------------------------------
# Define how the forces between the atoms will be modelled
#---------------------------------------------------------------------------------------------------
pair_style eam/alloy
pair_coeff * * Zope-Ti-Al-2003.eam.alloy.txt Al Al

#---------------------------------------------------------------------------------------------------
# Set behaviour of simulation
#---------------------------------------------------------------------------------------------------
group g_fixed type 2
36 atoms in group g_fixed
group g_other type 1
108 atoms in group g_other
fix f_freeze g_fixed setforce 0.0 0.0 0.0 	# Hold atoms of type 2 fixed in place
#fix f_constrain g_other setforce 0.0 0.0 NULL 	# All atoms of type 1 to move only in z direction

#---------------------------------------------------------------------------------------------------
# Specify what information to write out
#---------------------------------------------------------------------------------------------------
thermo_style custom step atoms temp pe ke etotal fmax
thermo_modify format 6 %20.10f
thermo 1000

#compute statom all stress/atom NULL
compute peatom all pe/atom
dump 1 all custom 100000 dump.* id type x y z c_peatom
dump_modify 1 first yes


#---------------------------------------------------------------------------------------------------
# Initial relaxation
#---------------------------------------------------------------------------------------------------
velocity all set 0.0 0.0 0.0

min_style 	cg
min_modify dmax 0.1
minimize 	0.0 1.0e-6 10000 100000
Neighbor list info ...
  update: every = 1 steps, delay = 0 steps, check = yes
  max neighbors/atom: 2000, page size: 100000
  master list distance cutoff = 8.724884
  ghost atom cutoff = 8.724884
  binsize = 4.362442, bins = 8 10 5
  1 neighbor lists, perpetual/occasional/extra = 1 0 0
  (1) pair eam/alloy, perpetual
      attributes: half, newton on
      pair build: half/bin/atomonly/newton/tri
      stencil: half/bin/3d/tri
      bin: standard
Per MPI rank memory allocation (min/avg/max) = 4.702 | 4.702 | 4.702 Mbytes
   Step        Atoms         Temp          PotEng         KinEng         TotEng          Fmax     
         0         144   0             -382.78076      0                  -382.7807567519  13.128946    
        66         144   0             -465.3129       0                  -465.3129023058  1.3715661e-07
Loop time of 0.0125182 on 1 procs for 66 steps with 144 atoms

99.3% CPU use with 1 MPI tasks x no OpenMP threads

Minimization stats:
  Stopping criterion = force tolerance
  Energy initial, next-to-last, final = 
     -382.780756751857  -465.312902305797  -465.312902305798
  Force two-norm initial, final = 62.811993 8.1579039e-07
  Force max component initial, final = 13.128946 1.3715661e-07
  Final line search alpha, max atom move = 1 1.3715661e-07
  Iterations, force evaluations = 66 123

MPI task timing breakdown:
Section |  min time  |  avg time  |  max time  |%varavg| %total
---------------------------------------------------------------
Pair    | 0.01139    | 0.01139    | 0.01139    |   0.0 | 90.99
Neigh   | 0          | 0          | 0          |   0.0 |  0.00
Comm    | 0.00065096 | 0.00065096 | 0.00065096 |   0.0 |  5.20
Output  | 0          | 0          | 0          |   0.0 |  0.00
Modify  | 1.5747e-05 | 1.5747e-05 | 1.5747e-05 |   0.0 |  0.13
Other   |            | 0.0004616  |            |       |  3.69

Nlocal:            144 ave         144 max         144 min
Histogram: 1 0 0 0 0 0 0 0 0 0
Nghost:           3116 ave        3116 max        3116 min
Histogram: 1 0 0 0 0 0 0 0 0 0
Neighs:          13620 ave       13620 max       13620 min
Histogram: 1 0 0 0 0 0 0 0 0 0

Total # of neighbors = 13620
Ave neighs/atom = 94.583333
Neighbor list builds = 0
Dangerous builds = 0
#---------------------------------------------------------------------------------------------------
# Anneal boundary structures
#---------------------------------------------------------------------------------------------------
reset_timestep 100000
fix md g_other nvt temp ${T_start} ${T_end} $(100.0*v_tstep)
fix md g_other nvt temp 600 ${T_end} $(100.0*v_tstep)
fix md g_other nvt temp 600 200 $(100.0*v_tstep)
fix md g_other nvt temp 600 200 0.2000000000000000111

velocity all create ${T_start} 4928459 rot yes mom yes dist gaussian
velocity all create 600 4928459 rot yes mom yes dist gaussian
run 10000
Per MPI rank memory allocation (min/avg/max) = 4.959 | 4.959 | 4.959 Mbytes
   Step        Atoms         Temp          PotEng         KinEng         TotEng          Fmax     
    100000         144   600           -465.3129       11.09052           -454.2223818648  1.3715662e-07
    101000         144   528.40145     -456.60072      9.7670785          -446.8336372195  1.6117856    
    102000         144   561.398       -456.61041      10.376993          -446.2334209250  1.793769     
    103000         144   521.5774      -458.14647      9.6409413          -448.5055279105  2.0420902    
    104000         144   502.42837     -458.96784      9.2869868          -449.6808560739  1.5184768    
    105000         144   471.76062     -459.33895      8.7201181          -450.6188281769  1.3115681    
    106000         144   433.83095     -460.25559      8.0190184          -452.2365718081  1.4059146    
    107000         144   406.46659     -460.40581      7.51321            -452.8926023637  1.0930802    
    108000         144   389.00397     -461.59954      7.1904276          -454.4091119015  0.94379026   
    109000         144   351.23668     -462.12603      6.4923293          -455.6337022600  0.93270665   
    110000         144   342.25149     -462.87395      6.3262453          -456.5477041355  0.82099296   
Loop time of 0.957497 on 1 procs for 10000 steps with 144 atoms

Performance: 1804.706 ns/day, 0.013 hours/ns, 10443.899 timesteps/s, 1.504 Matom-step/s
99.7% CPU use with 1 MPI tasks x no OpenMP threads

MPI task timing breakdown:
Section |  min time  |  avg time  |  max time  |%varavg| %total
---------------------------------------------------------------
Pair    | 0.8612     | 0.8612     | 0.8612     |   0.0 | 89.94
Neigh   | 0.020685   | 0.020685   | 0.020685   |   0.0 |  2.16
Comm    | 0.052878   | 0.052878   | 0.052878   |   0.0 |  5.52
Output  | 5.1999e-05 | 5.1999e-05 | 5.1999e-05 |   0.0 |  0.01
Modify  | 0.010438   | 0.010438   | 0.010438   |   0.0 |  1.09
Other   |            | 0.01225    |            |       |  1.28

Nlocal:            144 ave         144 max         144 min
Histogram: 1 0 0 0 0 0 0 0 0 0
Nghost:           3074 ave        3074 max        3074 min
Histogram: 1 0 0 0 0 0 0 0 0 0
Neighs:          13203 ave       13203 max       13203 min
Histogram: 1 0 0 0 0 0 0 0 0 0

Total # of neighbors = 13203
Ave neighs/atom = 91.6875
Neighbor list builds = 41
Dangerous builds = 0
unfix md

#---------------------------------------------------------------------------------------------------
# Final relaxation
#---------------------------------------------------------------------------------------------------
velocity all set 0.0 0.0 0.0

min_style 	cg
min_modify dmax 0.1
minimize 	0.0 1.0e-6 10000 100000
Per MPI rank memory allocation (min/avg/max) = 6.084 | 6.084 | 6.084 Mbytes
   Step        Atoms         Temp          PotEng         KinEng         TotEng          Fmax     
    110000         144   0             -462.87395      0                  -462.8739493867  0.82099296   
    110175         144   0             -465.30037      0                  -465.3003725118  1.9661893e-07
Loop time of 0.0352386 on 1 procs for 175 steps with 144 atoms

99.3% CPU use with 1 MPI tasks x no OpenMP threads

Minimization stats:
  Stopping criterion = force tolerance
  Energy initial, next-to-last, final = 
     -462.873949386747  -465.300372511822  -465.300372511825
  Force two-norm initial, final = 5.0794109 9.8636055e-07
  Force max component initial, final = 0.82099296 1.9661893e-07
  Final line search alpha, max atom move = 1 1.9661893e-07
  Iterations, force evaluations = 175 349

MPI task timing breakdown:
Section |  min time  |  avg time  |  max time  |%varavg| %total
---------------------------------------------------------------
Pair    | 0.032204   | 0.032204   | 0.032204   |   0.0 | 91.39
Neigh   | 0          | 0          | 0          |   0.0 |  0.00
Comm    | 0.0018282  | 0.0018282  | 0.0018282  |   0.0 |  5.19
Output  | 0          | 0          | 0          |   0.0 |  0.00
Modify  | 4.75e-05   | 4.75e-05   | 4.75e-05   |   0.0 |  0.13
Other   |            | 0.001159   |            |       |  3.29

Nlocal:            144 ave         144 max         144 min
Histogram: 1 0 0 0 0 0 0 0 0 0
Nghost:           3068 ave        3068 max        3068 min
Histogram: 1 0 0 0 0 0 0 0 0 0
Neighs:          13201 ave       13201 max       13201 min
Histogram: 1 0 0 0 0 0 0 0 0 0

Total # of neighbors = 13201
Ave neighs/atom = 91.673611
Neighbor list builds = 0
Dangerous builds = 0

Total wall time: 0:00:01
