LAMMPS (29 Aug 2024 - Update 2)
#---------------------------------------------------------------------------------------------------
# Initilise important features of simulation
#---------------------------------------------------------------------------------------------------
units 		metal	# Use metals units (Ang, ps, eV, bar, etc.)
dimension 	3		# Run the simulation in three dimensions
boundary 	p p p	# Use periodic boundaries in all three dimensions
atom_style 	atomic	#
#box tilt large		# Allow larger than normal tilt factors

variable T_start equal 600
variable T_end equal 200
variable tstep equal 0.002
timestep ${tstep}
timestep 0.002

read_data   lammps.txt	# Read in atom coordinates from a file
Reading data file ...
  triclinic box = (0 0 0) to (9.9204335 11.091382 23.734581) with tilt (4.9602167 17.360759 29.392162)
WARNING: Triclinic box skew is large. LAMMPS will run inefficiently. (src/domain.cpp:221)
  1 by 1 by 1 MPI processor grid
  reading atoms ...
  144 atoms
  read_data CPU = 0.001 seconds

#---------------------------------------------------------------------------------------------------
# Define how the forces between the atoms will be modelled
#---------------------------------------------------------------------------------------------------
pair_style eam/alloy
pair_coeff * * Zope-Ti-Al-2003.eam.alloy.txt Al Al

#---------------------------------------------------------------------------------------------------
# Set behaviour of simulation
#---------------------------------------------------------------------------------------------------
group g_fixed type 2
36 atoms in group g_fixed
group g_other type 1
108 atoms in group g_other
fix f_freeze g_fixed setforce 0.0 0.0 0.0 	# Hold atoms of type 2 fixed in place
#fix f_constrain g_other setforce 0.0 0.0 NULL 	# All atoms of type 1 to move only in z direction

#---------------------------------------------------------------------------------------------------
# Specify what information to write out
#---------------------------------------------------------------------------------------------------
thermo_style custom step atoms temp pe ke etotal fmax
thermo_modify format 6 %20.10f
thermo 1000

#compute statom all stress/atom NULL
compute peatom all pe/atom
dump 1 all custom 100000 dump.* id type x y z c_peatom
dump_modify 1 first yes


#---------------------------------------------------------------------------------------------------
# Initial relaxation
#---------------------------------------------------------------------------------------------------
velocity all set 0.0 0.0 0.0

min_style 	cg
min_modify dmax 0.1
minimize 	0.0 1.0e-6 10000 100000
Neighbor list info ...
  update: every = 1 steps, delay = 0 steps, check = yes
  max neighbors/atom: 2000, page size: 100000
  master list distance cutoff = 8.724884
  ghost atom cutoff = 8.724884
  binsize = 4.362442, bins = 8 10 6
  1 neighbor lists, perpetual/occasional/extra = 1 0 0
  (1) pair eam/alloy, perpetual
      attributes: half, newton on
      pair build: half/bin/atomonly/newton/tri
      stencil: half/bin/3d/tri
      bin: standard
Per MPI rank memory allocation (min/avg/max) = 4.651 | 4.651 | 4.651 Mbytes
   Step        Atoms         Temp          PotEng         KinEng         TotEng          Fmax     
         0         144   0             -463.19881      0                  -463.1988063435  2.4168687    
        53         144   0             -473.90674      0                  -473.9067373114  1.0343625e-07
Loop time of 0.00858642 on 1 procs for 53 steps with 144 atoms

99.1% CPU use with 1 MPI tasks x no OpenMP threads

Minimization stats:
  Stopping criterion = force tolerance
  Energy initial, next-to-last, final = 
     -463.198806343512  -473.906737311415  -473.906737311419
  Force two-norm initial, final = 11.208685 7.5772414e-07
  Force max component initial, final = 2.4168687 1.0343625e-07
  Final line search alpha, max atom move = 1 1.0343625e-07
  Iterations, force evaluations = 53 96

MPI task timing breakdown:
Section |  min time  |  avg time  |  max time  |%varavg| %total
---------------------------------------------------------------
Pair    | 0.0074059  | 0.0074059  | 0.0074059  |   0.0 | 86.25
Neigh   | 0.00041079 | 0.00041079 | 0.00041079 |   0.0 |  4.78
Comm    | 0.00038613 | 0.00038613 | 0.00038613 |   0.0 |  4.50
Output  | 0          | 0          | 0          |   0.0 |  0.00
Modify  | 1.3752e-05 | 1.3752e-05 | 1.3752e-05 |   0.0 |  0.16
Other   |            | 0.0003699  |            |       |  4.31

Nlocal:            144 ave         144 max         144 min
Histogram: 1 0 0 0 0 0 0 0 0 0
Nghost:           2286 ave        2286 max        2286 min
Histogram: 1 0 0 0 0 0 0 0 0 0
Neighs:          11130 ave       11130 max       11130 min
Histogram: 1 0 0 0 0 0 0 0 0 0

Total # of neighbors = 11130
Ave neighs/atom = 77.291667
Neighbor list builds = 1
Dangerous builds = 0
#---------------------------------------------------------------------------------------------------
# Anneal boundary structures
#---------------------------------------------------------------------------------------------------
reset_timestep 100000
fix md g_other nvt temp ${T_start} ${T_end} $(100.0*v_tstep)
fix md g_other nvt temp 600 ${T_end} $(100.0*v_tstep)
fix md g_other nvt temp 600 200 $(100.0*v_tstep)
fix md g_other nvt temp 600 200 0.2000000000000000111

velocity all create ${T_start} 4928459 rot yes mom yes dist gaussian
velocity all create 600 4928459 rot yes mom yes dist gaussian
run 10000
Per MPI rank memory allocation (min/avg/max) = 4.908 | 4.908 | 4.908 Mbytes
   Step        Atoms         Temp          PotEng         KinEng         TotEng          Fmax     
    100000         144   600           -473.90674      11.09052           -462.8162168704  1.0343623e-07
    101000         144   594.96822     -466.95169      10.997512          -455.9541755245  1.2401056    
    102000         144   655.81687     -467.57889      12.122251          -455.4566439928  1.7939118    
    103000         144   539.90311     -467.77247      9.9796774          -457.7927910009  1.3103566    
    104000         144   487.1974      -469.74386      9.0054545          -460.7384086115  0.96960199   
    105000         144   512.86832     -468.93208      9.479961           -459.4521151536  1.4869659    
    106000         144   457.95357     -470.13757      8.4649058          -461.6726641811  0.94808568   
    107000         144   386.82218     -470.1748       7.1500989          -463.0247016987  1.1945153    
    108000         144   388.9726      -471.21275      7.1898477          -464.0229008503  1.1133889    
    109000         144   352.74721     -472.11875      6.5202502          -465.5984984593  0.8447249    
    110000         144   322.67269     -472.56636      5.9643467          -466.6020116882  0.75632753   
Loop time of 0.821669 on 1 procs for 10000 steps with 144 atoms

Performance: 2103.037 ns/day, 0.011 hours/ns, 12170.355 timesteps/s, 1.753 Matom-step/s
99.7% CPU use with 1 MPI tasks x no OpenMP threads

MPI task timing breakdown:
Section |  min time  |  avg time  |  max time  |%varavg| %total
---------------------------------------------------------------
Pair    | 0.7217     | 0.7217     | 0.7217     |   0.0 | 87.83
Neigh   | 0.038258   | 0.038258   | 0.038258   |   0.0 |  4.66
Comm    | 0.040378   | 0.040378   | 0.040378   |   0.0 |  4.91
Output  | 4.5166e-05 | 4.5166e-05 | 4.5166e-05 |   0.0 |  0.01
Modify  | 0.010722   | 0.010722   | 0.010722   |   0.0 |  1.30
Other   |            | 0.01057    |            |       |  1.29

Nlocal:            144 ave         144 max         144 min
Histogram: 1 0 0 0 0 0 0 0 0 0
Nghost:           2298 ave        2298 max        2298 min
Histogram: 1 0 0 0 0 0 0 0 0 0
Neighs:          11077 ave       11077 max       11077 min
Histogram: 1 0 0 0 0 0 0 0 0 0

Total # of neighbors = 11077
Ave neighs/atom = 76.923611
Neighbor list builds = 86
Dangerous builds = 0
unfix md

#---------------------------------------------------------------------------------------------------
# Final relaxation
#---------------------------------------------------------------------------------------------------
velocity all set 0.0 0.0 0.0

min_style 	cg
min_modify dmax 0.1
minimize 	0.0 1.0e-6 10000 100000
Per MPI rank memory allocation (min/avg/max) = 6.033 | 6.033 | 6.033 Mbytes
   Step        Atoms         Temp          PotEng         KinEng         TotEng          Fmax     
    110000         144   0             -472.56636      0                  -472.5663583715  0.75632753   
    110049         144   0             -475.34056      0                  -475.3405569213  1.3870524e-07
Loop time of 0.00867104 on 1 procs for 49 steps with 144 atoms

97.9% CPU use with 1 MPI tasks x no OpenMP threads

Minimization stats:
  Stopping criterion = force tolerance
  Energy initial, next-to-last, final = 
     -472.566358371508   -475.34055692129  -475.340556921291
  Force two-norm initial, final = 4.4546207 7.0023326e-07
  Force max component initial, final = 0.75632753 1.3870524e-07
  Final line search alpha, max atom move = 1 1.3870524e-07
  Iterations, force evaluations = 49 96

MPI task timing breakdown:
Section |  min time  |  avg time  |  max time  |%varavg| %total
---------------------------------------------------------------
Pair    | 0.0078011  | 0.0078011  | 0.0078011  |   0.0 | 89.97
Neigh   | 0          | 0          | 0          |   0.0 |  0.00
Comm    | 0.00038924 | 0.00038924 | 0.00038924 |   0.0 |  4.49
Output  | 0          | 0          | 0          |   0.0 |  0.00
Modify  | 1.4128e-05 | 1.4128e-05 | 1.4128e-05 |   0.0 |  0.16
Other   |            | 0.0004666  |            |       |  5.38

Nlocal:            144 ave         144 max         144 min
Histogram: 1 0 0 0 0 0 0 0 0 0
Nghost:           2307 ave        2307 max        2307 min
Histogram: 1 0 0 0 0 0 0 0 0 0
Neighs:          11031 ave       11031 max       11031 min
Histogram: 1 0 0 0 0 0 0 0 0 0

Total # of neighbors = 11031
Ave neighs/atom = 76.604167
Neighbor list builds = 0
Dangerous builds = 0

Total wall time: 0:00:00
