LAMMPS (29 Aug 2024 - Update 2)
#---------------------------------------------------------------------------------------------------
# Initilise important features of simulation
#---------------------------------------------------------------------------------------------------
units 		metal	# Use metals units (Ang, ps, eV, bar, etc.)
dimension 	3		# Run the simulation in three dimensions
boundary 	p p p	# Use periodic boundaries in all three dimensions
atom_style 	atomic	#
#box tilt large		# Allow larger than normal tilt factors

variable T_start equal 600
variable T_end equal 200
variable tstep equal 0.002
timestep ${tstep}
timestep 0.002

read_data   lammps.txt	# Read in atom coordinates from a file
Reading data file ...
  triclinic box = (0 0 0) to (9.9204335 11.091382 25.734581) with tilt (4.9602167 19.840867 40.483544)
WARNING: Triclinic box skew is large. LAMMPS will run inefficiently. (src/domain.cpp:221)
  1 by 1 by 1 MPI processor grid
  reading atoms ...
  144 atoms
  read_data CPU = 0.001 seconds

#---------------------------------------------------------------------------------------------------
# Define how the forces between the atoms will be modelled
#---------------------------------------------------------------------------------------------------
pair_style eam/alloy
pair_coeff * * Zope-Ti-Al-2003.eam.alloy.txt Al Al

#---------------------------------------------------------------------------------------------------
# Set behaviour of simulation
#---------------------------------------------------------------------------------------------------
group g_fixed type 2
36 atoms in group g_fixed
group g_other type 1
108 atoms in group g_other
fix f_freeze g_fixed setforce 0.0 0.0 0.0 	# Hold atoms of type 2 fixed in place
#fix f_constrain g_other setforce 0.0 0.0 NULL 	# All atoms of type 1 to move only in z direction

#---------------------------------------------------------------------------------------------------
# Specify what information to write out
#---------------------------------------------------------------------------------------------------
thermo_style custom step atoms temp pe ke etotal fmax
thermo_modify format 6 %20.10f
thermo 1000

#compute statom all stress/atom NULL
compute peatom all pe/atom
dump 1 all custom 100000 dump.* id type x y z c_peatom
dump_modify 1 first yes


#---------------------------------------------------------------------------------------------------
# Initial relaxation
#---------------------------------------------------------------------------------------------------
velocity all set 0.0 0.0 0.0

min_style 	cg
min_modify dmax 0.1
minimize 	0.0 1.0e-6 10000 100000
Neighbor list info ...
  update: every = 1 steps, delay = 0 steps, check = yes
  max neighbors/atom: 2000, page size: 100000
  master list distance cutoff = 8.724884
  ghost atom cutoff = 8.724884
  binsize = 4.362442, bins = 8 12 6
  1 neighbor lists, perpetual/occasional/extra = 1 0 0
  (1) pair eam/alloy, perpetual
      attributes: half, newton on
      pair build: half/bin/atomonly/newton/tri
      stencil: half/bin/3d/tri
      bin: standard
Per MPI rank memory allocation (min/avg/max) = 4.656 | 4.656 | 4.656 Mbytes
   Step        Atoms         Temp          PotEng         KinEng         TotEng          Fmax     
         0         144   0             -455.96401      0                  -455.9640073144  1.819072     
        70         144   0             -465.07529      0                  -465.0752889604  1.304926e-07 
Loop time of 0.010211 on 1 procs for 70 steps with 144 atoms

99.3% CPU use with 1 MPI tasks x no OpenMP threads

Minimization stats:
  Stopping criterion = force tolerance
  Energy initial, next-to-last, final = 
     -455.964007314387  -465.075288960444  -465.075288960445
  Force two-norm initial, final = 7.9724267 8.8105994e-07
  Force max component initial, final = 1.819072 1.304926e-07
  Final line search alpha, max atom move = 1 1.304926e-07
  Iterations, force evaluations = 70 131

MPI task timing breakdown:
Section |  min time  |  avg time  |  max time  |%varavg| %total
---------------------------------------------------------------
Pair    | 0.0091938  | 0.0091938  | 0.0091938  |   0.0 | 90.04
Neigh   | 0          | 0          | 0          |   0.0 |  0.00
Comm    | 0.000556   | 0.000556   | 0.000556   |   0.0 |  5.45
Output  | 0          | 0          | 0          |   0.0 |  0.00
Modify  | 1.7625e-05 | 1.7625e-05 | 1.7625e-05 |   0.0 |  0.17
Other   |            | 0.0004436  |            |       |  4.34

Nlocal:            144 ave         144 max         144 min
Histogram: 1 0 0 0 0 0 0 0 0 0
Nghost:           2520 ave        2520 max        2520 min
Histogram: 1 0 0 0 0 0 0 0 0 0
Neighs:          10476 ave       10476 max       10476 min
Histogram: 1 0 0 0 0 0 0 0 0 0

Total # of neighbors = 10476
Ave neighs/atom = 72.75
Neighbor list builds = 0
Dangerous builds = 0
#---------------------------------------------------------------------------------------------------
# Anneal boundary structures
#---------------------------------------------------------------------------------------------------
reset_timestep 100000
fix md g_other nvt temp ${T_start} ${T_end} $(100.0*v_tstep)
fix md g_other nvt temp 600 ${T_end} $(100.0*v_tstep)
fix md g_other nvt temp 600 200 $(100.0*v_tstep)
fix md g_other nvt temp 600 200 0.2000000000000000111

velocity all create ${T_start} 4928459 rot yes mom yes dist gaussian
velocity all create 600 4928459 rot yes mom yes dist gaussian
run 10000
Per MPI rank memory allocation (min/avg/max) = 4.912 | 4.912 | 4.912 Mbytes
   Step        Atoms         Temp          PotEng         KinEng         TotEng          Fmax     
    100000         144   600           -465.07529      11.09052           -453.9847685194  1.3049262e-07
    101000         144   598.09301     -456.99379      11.055271          -445.9385169633  1.0238177    
    102000         144   568.15367     -456.40697      10.501866          -445.9051013022  1.1965097    
    103000         144   519.27698     -458.20678      9.59842            -448.6083635734  1.3177593    
    104000         144   487.03206     -459.43816      9.0023983          -450.4357632130  1.5313274    
    105000         144   489.49635     -460.525        9.0479487          -451.4770501260  1.0422187    
    106000         144   463.76229     -462.00203      8.5722752          -453.4297502262  0.95755311   
    107000         144   439.85796     -461.90732      8.1304229          -453.7768963920  1.1949503    
    108000         144   398.80954     -462.98281      7.3716755          -455.6111312064  0.90978455   
    109000         144   380.71939     -463.95829      7.0372937          -456.9209995350  1.0161147    
    110000         144   340.56557     -464.27092      6.2950824          -457.9758390530  0.69001263   
Loop time of 0.823221 on 1 procs for 10000 steps with 144 atoms

Performance: 2099.072 ns/day, 0.011 hours/ns, 12147.408 timesteps/s, 1.749 Matom-step/s
99.6% CPU use with 1 MPI tasks x no OpenMP threads

MPI task timing breakdown:
Section |  min time  |  avg time  |  max time  |%varavg| %total
---------------------------------------------------------------
Pair    | 0.7005     | 0.7005     | 0.7005     |   0.0 | 85.09
Neigh   | 0.0554     | 0.0554     | 0.0554     |   0.0 |  6.73
Comm    | 0.045171   | 0.045171   | 0.045171   |   0.0 |  5.49
Output  | 5.1083e-05 | 5.1083e-05 | 5.1083e-05 |   0.0 |  0.01
Modify  | 0.010703   | 0.010703   | 0.010703   |   0.0 |  1.30
Other   |            | 0.0114     |            |       |  1.38

Nlocal:            144 ave         144 max         144 min
Histogram: 1 0 0 0 0 0 0 0 0 0
Nghost:           2598 ave        2598 max        2598 min
Histogram: 1 0 0 0 0 0 0 0 0 0
Neighs:          10147 ave       10147 max       10147 min
Histogram: 1 0 0 0 0 0 0 0 0 0

Total # of neighbors = 10147
Ave neighs/atom = 70.465278
Neighbor list builds = 121
Dangerous builds = 0
unfix md

#---------------------------------------------------------------------------------------------------
# Final relaxation
#---------------------------------------------------------------------------------------------------
velocity all set 0.0 0.0 0.0

min_style 	cg
min_modify dmax 0.1
minimize 	0.0 1.0e-6 10000 100000
Per MPI rank memory allocation (min/avg/max) = 6.039 | 6.039 | 6.039 Mbytes
   Step        Atoms         Temp          PotEng         KinEng         TotEng          Fmax     
    110000         144   0             -464.27092      0                  -464.2709214381  0.69001263   
    110126         144   0             -467.05446      0                  -467.0544615520  1.5737996e-07
Loop time of 0.0213322 on 1 procs for 126 steps with 144 atoms

95.0% CPU use with 1 MPI tasks x no OpenMP threads

Minimization stats:
  Stopping criterion = force tolerance
  Energy initial, next-to-last, final = 
     -464.270921438103  -467.054461552041  -467.054461552039
  Force two-norm initial, final = 4.2706683 8.1717038e-07
  Force max component initial, final = 0.69001263 1.5737996e-07
  Final line search alpha, max atom move = 1 1.5737996e-07
  Iterations, force evaluations = 126 251

MPI task timing breakdown:
Section |  min time  |  avg time  |  max time  |%varavg| %total
---------------------------------------------------------------
Pair    | 0.018475   | 0.018475   | 0.018475   |   0.0 | 86.61
Neigh   | 0          | 0          | 0          |   0.0 |  0.00
Comm    | 0.0011001  | 0.0011001  | 0.0011001  |   0.0 |  5.16
Output  | 0          | 0          | 0          |   0.0 |  0.00
Modify  | 3.5042e-05 | 3.5042e-05 | 3.5042e-05 |   0.0 |  0.16
Other   |            | 0.001722   |            |       |  8.07

Nlocal:            144 ave         144 max         144 min
Histogram: 1 0 0 0 0 0 0 0 0 0
Nghost:           2577 ave        2577 max        2577 min
Histogram: 1 0 0 0 0 0 0 0 0 0
Neighs:          10147 ave       10147 max       10147 min
Histogram: 1 0 0 0 0 0 0 0 0 0

Total # of neighbors = 10147
Ave neighs/atom = 70.465278
Neighbor list builds = 0
Dangerous builds = 0

Total wall time: 0:00:00
