ITEM: TIMESTEP
100000
ITEM: NUMBER OF ATOMS
144
ITEM: BOX BOUNDS xy xz yz pp pp pp
0.0000000000000000e+00 3.7821652559661516e+01 4.9602167291359365e+00
0.0000000000000000e+00 4.4642811702655436e+01 2.2941002372253706e+01
0.0000000000000000e+00 2.4734580741297954e+01 3.3551429913175824e+01
ITEM: ATOMS id type x y z c_peatom
70 2 0 0 0 -3.35897
82 2 1.65341 3.69713 0 -3.34651
69 2 4.96022 0 0 -3.35897
81 2 6.61362 3.69713 0 -3.34651
80 2 4.13351 4.80627 0.905608 -3.34868
86 1 4.09243 6.98873 2.84619 -3.36126
88 1 6.56633 8.07949 3.81352 -3.29316
91 2 9.09373 4.80627 0.905608 -3.34868
92 1 9.05265 6.98873 2.84619 -3.36126
93 1 6.60095 5.90372 1.93028 -3.37128
94 2 5.78692 8.50339 0.905608 -3.35003
95 2 8.26703 7.39425 0 -3.34651
76 1 11.5612 5.90372 1.93028 -3.37128
89 1 11.5265 8.07949 3.81352 -3.29316
96 2 13.2272 7.39425 0 -3.34651
104 2 10.7471 8.50339 0.905608 -3.35003
68 2 7.44033 12.2005 0.905608 -3.36187
98 1 9.05306 9.26352 4.77167 -3.17449
100 1 5.81804 10.6543 2.83447 -3.35477
102 1 8.33451 11.7445 3.64024 -3.28929
106 1 8.27064 9.5526 1.89758 -3.3602
77 2 12.4005 12.2005 0.905608 -3.36187
79 1 9.93599 13.3001 1.88804 -3.39161
87 1 14.0133 9.26352 4.77167 -3.17449
90 1 13.2309 9.5526 1.89758 -3.3602
103 1 13.2947 11.7445 3.64024 -3.28929
105 1 10.7783 10.6543 2.83447 -3.35477
108 1 10.9418 12.8376 4.62867 -3.14388
67 1 14.8962 13.3001 1.88804 -3.39161
101 1 15.902 12.8376 4.62867 -3.14388
72 1 7.44454 14.4201 2.83069 -3.3858
74 1 9.86134 15.4902 3.76729 -3.30317
78 1 12.4048 14.4201 2.83069 -3.3858
84 1 12.2412 16.4699 4.86881 -3.13641
73 1 17.2014 16.4699 4.86881 -3.13641
75 1 14.8216 15.4902 3.76729 -3.30317
2 1 9.0333 11.252 7.47045 -3.0897
99 1 6.583 10.3109 5.93588 -3.07328
1 1 13.9935 11.252 7.47045 -3.0897
9 1 11.4736 12.3082 8.59466 -3.18561
83 1 11.5432 10.3109 5.93588 -3.07328
3 1 16.4339 12.3082 8.59466 -3.18561
109 1 8.55799 13.7348 5.57874 -3.01907
5 1 12.1134 14.9649 7.61754 -2.97474
6 1 13.9399 13.4939 9.53987 -3.3038
17 1 12.2748 17.1587 9.55284 -3.31077
97 1 13.5182 13.7348 5.57874 -3.01907
4 1 18.9001 13.4939 9.53987 -3.3038
14 1 17.0736 14.9649 7.61754 -2.97474
15 1 14.675 16.1655 8.47539 -3.14035
16 1 17.235 17.1587 9.55284 -3.31077
71 1 14.6181 17.6664 5.69522 -2.96576
20 1 19.6352 16.1655 8.47539 -3.14035
85 1 19.5783 17.6664 5.69522 -2.96576
22 1 13.3176 19.8114 8.6858 -3.14539
21 1 10.9497 18.9187 7.74456 -3.0071
35 1 15.9099 18.9187 7.74456 -3.0071
36 1 15.6807 20.9066 9.65748 -3.30055
44 1 18.2778 19.8114 8.6858 -3.14539
41 1 20.6409 20.9066 9.65748 -3.30055
7 1 11.4486 14.5766 10.4788 -3.37066
8 2 13.9506 15.6666 11.4617 -3.36839
10 2 18.9108 15.6666 11.4617 -3.36839
13 1 16.4088 14.5766 10.4788 -3.37066
31 2 17.2574 19.3637 11.4617 -3.38632
32 2 14.7773 20.4728 12.3673 -3.36673
33 2 17.2574 21.582 13.2729 -3.36958
34 1 14.7889 18.2402 10.4796 -3.39158
42 1 18.1201 21.9939 10.4724 -3.37225
18 1 19.7491 18.2402 10.4796 -3.39158
19 2 22.2176 19.3637 11.4617 -3.38632
37 2 22.2176 21.582 13.2729 -3.36958
40 2 19.7375 20.4728 12.3673 -3.36673
46 1 23.0803 21.9939 10.4724 -3.37225
52 1 14.7414 22.6489 14.2622 -3.37225
53 2 15.604 23.0608 11.4617 -3.36958
54 2 15.604 25.2791 13.2729 -3.38632
58 1 18.0726 26.4026 14.2549 -3.39158
60 2 18.0841 24.17 12.3673 -3.36673
38 1 19.7016 22.6489 14.2622 -3.37225
43 2 20.5642 23.0608 11.4617 -3.36958
45 2 23.0443 24.17 12.3673 -3.36673
57 2 20.5642 25.2791 13.2729 -3.38632
62 1 23.0328 26.4026 14.2549 -3.39158
23 2 18.9108 28.9762 13.2729 -3.36839
11 2 21.3909 27.8671 12.3673 -3.35261
30 1 21.4129 30.0662 14.2558 -3.37066
12 2 23.871 28.9762 13.2729 -3.36839
24 1 26.3731 30.0662 14.2558 -3.37066
26 2 26.3512 27.8671 12.3673 -3.35261
49 1 17.1808 23.7362 15.0771 -3.30055
39 1 22.141 23.7362 15.0771 -3.30055
55 1 21.9117 25.7241 16.99 -3.0071
56 1 19.5438 24.8314 16.0488 -3.14539
51 1 26.872 25.7241 16.99 -3.0071
50 1 24.5041 24.8314 16.0488 -3.14539
66 1 18.1864 28.4773 16.2592 -3.14035
117 1 18.2433 26.9765 19.0394 -2.96576
25 1 18.9216 31.1489 15.1947 -3.3038
59 1 20.5866 27.4841 15.1817 -3.31077
61 1 23.1466 28.4773 16.2592 -3.14035
65 1 20.748 29.6779 17.117 -2.97474
107 1 23.2035 26.9765 19.0394 -2.96576
27 1 23.8818 31.1489 15.1947 -3.3038
63 1 25.5469 27.4841 15.1817 -3.31077
64 1 25.7083 29.6779 17.117 -2.97474
115 1 24.3034 30.908 19.1558 -3.01907
129 1 29.2637 30.908 19.1558 -3.01907
28 1 21.3878 32.3346 16.1399 -3.18561
29 1 23.8281 33.3908 17.2641 -3.0897
48 1 26.348 32.3346 16.1399 -3.18561
127 1 26.2784 34.332 18.7987 -3.07328
47 1 28.7884 33.3908 17.2641 -3.0897
140 1 31.2387 34.332 18.7987 -3.07328
114 1 23.0001 29.1526 20.9673 -3.30317
116 1 20.6203 28.1729 19.8658 -3.13641
111 1 25.5805 28.1729 19.8658 -3.13641
112 1 25.4169 30.2227 21.9039 -3.3858
113 1 27.9603 29.1526 20.9673 -3.30317
120 1 30.3771 30.2227 21.9039 -3.3858
110 1 22.9254 31.3427 22.8465 -3.39161
128 1 21.9197 31.8053 20.1059 -3.14388
118 2 25.4211 32.4423 23.829 -3.36187
119 1 24.5908 35.0902 22.837 -3.3602
122 1 27.8857 31.3427 22.8465 -3.39161
123 1 26.8799 31.8053 20.1059 -3.14388
124 1 27.0434 33.9885 21.9001 -3.35477
126 1 24.5269 32.8983 21.0943 -3.28929
139 1 23.8084 35.3793 19.9629 -3.17449
121 2 30.3813 32.4423 23.829 -3.36187
125 1 29.4871 32.8983 21.0943 -3.28929
132 1 32.0036 33.9885 21.9001 -3.35477
134 1 29.551 35.0902 22.837 -3.3602
135 1 28.7686 35.3793 19.9629 -3.17449
130 2 27.0745 36.1394 23.829 -3.35003
131 1 26.2605 38.7391 22.8043 -3.37128
138 1 26.2951 36.5633 20.9211 -3.29316
133 2 32.0347 36.1394 23.829 -3.35003
136 1 28.769 37.6541 21.8884 -3.36126
137 1 31.2553 36.5633 20.9211 -3.29316
141 2 28.7279 39.8365 23.829 -3.34868
144 1 31.2207 38.7391 22.8043 -3.37128
142 1 33.7292 37.6541 21.8884 -3.36126
143 2 33.6881 39.8365 23.829 -3.34868
