LAMMPS (29 Aug 2024 - Update 2)
#---------------------------------------------------------------------------------------------------
# Initilise important features of simulation
#---------------------------------------------------------------------------------------------------
units 		metal	# Use metals units (Ang, ps, eV, bar, etc.)
dimension 	3		# Run the simulation in three dimensions
boundary 	p p p	# Use periodic boundaries in all three dimensions
atom_style 	atomic	#
#box tilt large		# Allow larger than normal tilt factors

variable T_start equal 600
variable T_end equal 200
variable tstep equal 0.002
timestep ${tstep}
timestep 0.002

read_data   lammps.txt	# Read in atom coordinates from a file
Reading data file ...
  triclinic box = (0 0 0) to (9.9204335 11.091382 20.734581) with tilt (4.9602167 9.9204335 37.710698)
WARNING: Triclinic box skew is large. LAMMPS will run inefficiently. (src/domain.cpp:221)
  1 by 1 by 1 MPI processor grid
  reading atoms ...
  144 atoms
  read_data CPU = 0.001 seconds

#---------------------------------------------------------------------------------------------------
# Define how the forces between the atoms will be modelled
#---------------------------------------------------------------------------------------------------
pair_style eam/alloy
pair_coeff * * Zope-Ti-Al-2003.eam.alloy.txt Al Al

#---------------------------------------------------------------------------------------------------
# Set behaviour of simulation
#---------------------------------------------------------------------------------------------------
group g_fixed type 2
36 atoms in group g_fixed
group g_other type 1
108 atoms in group g_other
fix f_freeze g_fixed setforce 0.0 0.0 0.0 	# Hold atoms of type 2 fixed in place
#fix f_constrain g_other setforce 0.0 0.0 NULL 	# All atoms of type 1 to move only in z direction

#---------------------------------------------------------------------------------------------------
# Specify what information to write out
#---------------------------------------------------------------------------------------------------
thermo_style custom step atoms temp pe ke etotal fmax
thermo_modify format 6 %20.10f
thermo 1000

#compute statom all stress/atom NULL
compute peatom all pe/atom
dump 1 all custom 100000 dump.* id type x y z c_peatom
dump_modify 1 first yes


#---------------------------------------------------------------------------------------------------
# Initial relaxation
#---------------------------------------------------------------------------------------------------
velocity all set 0.0 0.0 0.0

min_style 	cg
min_modify dmax 0.1
minimize 	0.0 1.0e-6 10000 100000
Neighbor list info ...
  update: every = 1 steps, delay = 0 steps, check = yes
  max neighbors/atom: 2000, page size: 100000
  master list distance cutoff = 8.724884
  ghost atom cutoff = 8.724884
  binsize = 4.362442, bins = 6 12 5
  1 neighbor lists, perpetual/occasional/extra = 1 0 0
  (1) pair eam/alloy, perpetual
      attributes: half, newton on
      pair build: half/bin/atomonly/newton/tri
      stencil: half/bin/3d/tri
      bin: standard
Per MPI rank memory allocation (min/avg/max) = 4.721 | 4.721 | 4.721 Mbytes
   Step        Atoms         Temp          PotEng         KinEng         TotEng          Fmax     
         0         144   0             -413.13424      0                  -413.1342420449  7.3935155    
       102         144   0             -468.10236      0                  -468.1023604809  1.3751325e-07
Loop time of 0.0205857 on 1 procs for 102 steps with 144 atoms

98.9% CPU use with 1 MPI tasks x no OpenMP threads

Minimization stats:
  Stopping criterion = force tolerance
  Energy initial, next-to-last, final = 
      -413.13424204492  -468.102360480869   -468.10236048087
  Force two-norm initial, final = 42.367672 9.2508571e-07
  Force max component initial, final = 7.3935155 1.3751325e-07
  Final line search alpha, max atom move = 1 1.3751325e-07
  Iterations, force evaluations = 102 188

MPI task timing breakdown:
Section |  min time  |  avg time  |  max time  |%varavg| %total
---------------------------------------------------------------
Pair    | 0.01766    | 0.01766    | 0.01766    |   0.0 | 85.79
Neigh   | 0.001024   | 0.001024   | 0.001024   |   0.0 |  4.97
Comm    | 0.0010908  | 0.0010908  | 0.0010908  |   0.0 |  5.30
Output  | 0          | 0          | 0          |   0.0 |  0.00
Modify  | 2.5791e-05 | 2.5791e-05 | 2.5791e-05 |   0.0 |  0.13
Other   |            | 0.0007855  |            |       |  3.82

Nlocal:            144 ave         144 max         144 min
Histogram: 1 0 0 0 0 0 0 0 0 0
Nghost:           3268 ave        3268 max        3268 min
Histogram: 1 0 0 0 0 0 0 0 0 0
Neighs:          12706 ave       12706 max       12706 min
Histogram: 1 0 0 0 0 0 0 0 0 0

Total # of neighbors = 12706
Ave neighs/atom = 88.236111
Neighbor list builds = 2
Dangerous builds = 0
#---------------------------------------------------------------------------------------------------
# Anneal boundary structures
#---------------------------------------------------------------------------------------------------
reset_timestep 100000
fix md g_other nvt temp ${T_start} ${T_end} $(100.0*v_tstep)
fix md g_other nvt temp 600 ${T_end} $(100.0*v_tstep)
fix md g_other nvt temp 600 200 $(100.0*v_tstep)
fix md g_other nvt temp 600 200 0.2000000000000000111

velocity all create ${T_start} 4928459 rot yes mom yes dist gaussian
velocity all create 600 4928459 rot yes mom yes dist gaussian
run 10000
Per MPI rank memory allocation (min/avg/max) = 4.977 | 4.977 | 4.977 Mbytes
   Step        Atoms         Temp          PotEng         KinEng         TotEng          Fmax     
    100000         144   600           -468.10236      11.09052           -457.0118400399  1.3751319e-07
    101000         144   625.69711     -461.16726      11.565511          -449.6017444685  1.4497307    
    102000         144   585.96562     -460.0723       10.831106          -449.2411987308  1.8172146    
    103000         144   524.62772     -461.2878       9.6973241          -451.5904737278  1.4604956    
    104000         144   536.58568     -461.44796      9.9183574          -451.5296057910  1.6029815    
    105000         144   481.3672      -462.52358      8.897688           -453.6258947916  1.2592973    
    106000         144   437.87462     -461.93319      8.0937624          -453.8394296017  1.4592598    
    107000         144   417.29192     -463.46292      7.7133075          -455.7496129025  1.4682158    
    108000         144   417.14482     -463.61372      7.7105886          -455.9031265577  1.1213451    
    109000         144   368.42967     -465.03178      6.8101279          -458.2216548230  0.91558942   
    110000         144   323.89367     -465.77594      5.9869156          -459.7890266092  0.86899191   
Loop time of 0.985848 on 1 procs for 10000 steps with 144 atoms

Performance: 1752.805 ns/day, 0.014 hours/ns, 10143.549 timesteps/s, 1.461 Matom-step/s
99.3% CPU use with 1 MPI tasks x no OpenMP threads

MPI task timing breakdown:
Section |  min time  |  avg time  |  max time  |%varavg| %total
---------------------------------------------------------------
Pair    | 0.87191    | 0.87191    | 0.87191    |   0.0 | 88.44
Neigh   | 0.0322     | 0.0322     | 0.0322     |   0.0 |  3.27
Comm    | 0.058192   | 0.058192   | 0.058192   |   0.0 |  5.90
Output  | 7.7999e-05 | 7.7999e-05 | 7.7999e-05 |   0.0 |  0.01
Modify  | 0.010722   | 0.010722   | 0.010722   |   0.0 |  1.09
Other   |            | 0.01275    |            |       |  1.29

Nlocal:            144 ave         144 max         144 min
Histogram: 1 0 0 0 0 0 0 0 0 0
Nghost:           3303 ave        3303 max        3303 min
Histogram: 1 0 0 0 0 0 0 0 0 0
Neighs:          12611 ave       12611 max       12611 min
Histogram: 1 0 0 0 0 0 0 0 0 0

Total # of neighbors = 12611
Ave neighs/atom = 87.576389
Neighbor list builds = 65
Dangerous builds = 0
unfix md

#---------------------------------------------------------------------------------------------------
# Final relaxation
#---------------------------------------------------------------------------------------------------
velocity all set 0.0 0.0 0.0

min_style 	cg
min_modify dmax 0.1
minimize 	0.0 1.0e-6 10000 100000
Per MPI rank memory allocation (min/avg/max) = 6.102 | 6.102 | 6.102 Mbytes
   Step        Atoms         Temp          PotEng         KinEng         TotEng          Fmax     
    110000         144   0             -465.77594      0                  -465.7759421809  0.86899191   
    110097         144   0             -468.28016      0                  -468.2801646489  2.2333531e-07
Loop time of 0.0198123 on 1 procs for 97 steps with 144 atoms

98.7% CPU use with 1 MPI tasks x no OpenMP threads

Minimization stats:
  Stopping criterion = force tolerance
  Energy initial, next-to-last, final = 
     -465.775942180938   -468.28016464889  -468.280164648889
  Force two-norm initial, final = 4.7777992 9.4322174e-07
  Force max component initial, final = 0.86899191 2.2333531e-07
  Final line search alpha, max atom move = 1 2.2333531e-07
  Iterations, force evaluations = 97 193

MPI task timing breakdown:
Section |  min time  |  avg time  |  max time  |%varavg| %total
---------------------------------------------------------------
Pair    | 0.017868   | 0.017868   | 0.017868   |   0.0 | 90.18
Neigh   | 0          | 0          | 0          |   0.0 |  0.00
Comm    | 0.0011108  | 0.0011108  | 0.0011108  |   0.0 |  5.61
Output  | 0          | 0          | 0          |   0.0 |  0.00
Modify  | 2.7579e-05 | 2.7579e-05 | 2.7579e-05 |   0.0 |  0.14
Other   |            | 0.0008065  |            |       |  4.07

Nlocal:            144 ave         144 max         144 min
Histogram: 1 0 0 0 0 0 0 0 0 0
Nghost:           3286 ave        3286 max        3286 min
Histogram: 1 0 0 0 0 0 0 0 0 0
Neighs:          12590 ave       12590 max       12590 min
Histogram: 1 0 0 0 0 0 0 0 0 0

Total # of neighbors = 12590
Ave neighs/atom = 87.430556
Neighbor list builds = 0
Dangerous builds = 0

Total wall time: 0:00:01
