ITEM: TIMESTEP
55
ITEM: NUMBER OF ATOMS
144
ITEM: BOX BOUNDS xy xz yz pp pp pp
0.0000000000000000e+00 2.2941002372253710e+01 4.9602167291359365e+00
0.0000000000000000e+00 5.2961348044765145e+01 8.0603521848459021e+00
0.0000000000000000e+00 2.2734580741297954e+01 4.1869966255285533e+01
ITEM: ATOMS id type x y z c_peatom
70 2 0 0 0 -3.34111
69 2 4.96022 3.06702e-16 0 -3.34111
81 2 6.61362 3.69713 0 -3.36055
82 2 11.5738 3.69713 0 -3.36055
80 2 4.13351 4.80627 0.905608 -3.3655
86 1 4.06547 7.0524 2.71116 -3.35759
88 1 6.45206 8.17414 3.69997 -3.26712
91 2 9.09373 4.80627 0.905608 -3.3655
92 1 9.02568 7.0524 2.71116 -3.35759
93 1 6.59785 5.9243 1.8372 -3.37834
94 2 5.78692 8.50339 0.905608 -3.36655
95 2 8.26703 7.39425 0 -3.36055
76 1 11.5581 5.9243 1.8372 -3.37834
89 1 11.4123 8.17414 3.69997 -3.26712
96 2 13.2272 7.39425 0 -3.36055
104 2 10.7471 8.50339 0.905608 -3.36655
87 1 3.79123 9.21613 4.72682 -3.24665
68 2 7.44033 12.2005 0.905608 -3.35024
98 1 8.75144 9.21613 4.72682 -3.24665
100 1 5.79294 10.7593 2.8245 -3.34071
101 1 5.98151 13.0614 4.72949 -3.30136
102 1 8.3509 11.8812 3.80544 -3.33717
106 1 8.2621 9.65143 1.87963 -3.36429
77 2 12.4005 12.2005 0.905608 -3.35024
90 1 13.2223 9.65143 1.87963 -3.36429
103 1 13.3111 11.8812 3.80544 -3.33717
105 1 10.7532 10.7593 2.8245 -3.34071
108 1 10.9417 13.0614 4.72949 -3.30136
72 1 7.47734 14.3975 2.74463 -3.36117
73 1 7.49123 16.6134 4.5507 -3.26601
74 1 9.96264 15.4343 3.54643 -3.30687
78 1 12.4376 14.3975 2.74463 -3.36117
79 1 9.93467 13.2656 1.82396 -3.33271
84 1 12.4514 16.6134 4.5507 -3.26601
67 1 14.8949 13.2656 1.82396 -3.33271
75 1 14.9229 15.4343 3.54643 -3.30687
9 1 3.84255 16.5124 7.60968 -3.27993
1 1 6.2191 15.2847 6.68694 -3.28898
3 1 8.80276 16.5124 7.60968 -3.27993
6 1 6.44412 17.5629 8.60283 -3.28551
109 1 8.59561 14.2194 5.68063 -3.32553
2 1 11.1793 15.2847 6.68694 -3.28898
4 1 11.4043 17.5629 8.60283 -3.28551
97 1 13.5558 14.2194 5.68063 -3.32553
15 1 7.4194 20.1917 7.72213 -3.27517
14 1 9.90714 19.3099 7.02671 -3.06144
16 1 9.86769 21.3769 8.70551 -3.31734
20 1 12.3796 20.1917 7.72213 -3.27517
85 1 9.97179 17.4582 5.2712 -3.06811
99 1 11.0513 21.557 5.64619 -3.27712
5 1 14.8674 19.3099 7.02671 -3.06144
17 1 14.8279 21.3769 8.70551 -3.31734
71 1 14.932 17.4582 5.2712 -3.06811
83 1 16.0115 21.557 5.64619 -3.27712
35 1 8.42297 22.6494 6.64312 -3.31289
36 1 8.20867 24.9614 8.52657 -3.35189
21 1 13.3832 22.6494 6.64312 -3.31289
41 1 13.1689 24.9614 8.52657 -3.35189
44 1 10.765 23.7949 7.58738 -3.31065
22 1 15.7252 23.7949 7.58738 -3.31065
7 1 4.0085 18.7005 9.58318 -3.36099
8 2 6.51028 19.8258 10.4617 -3.38542
11 2 8.99039 20.935 11.3673 -3.37203
13 1 8.96871 18.7005 9.58318 -3.36099
10 2 11.4705 19.8258 10.4617 -3.38542
26 2 13.9506 20.935 11.3673 -3.37203
32 2 7.33699 24.6321 11.3673 -3.3624
34 1 7.36684 22.4221 9.52099 -3.36989
18 1 12.3271 22.4221 9.52099 -3.36989
31 2 9.8171 23.523 10.4617 -3.33206
33 2 9.8171 25.7412 12.2729 -3.35331
40 2 12.2972 24.6321 11.3673 -3.3624
42 1 10.6362 26.0768 9.48399 -3.3581
19 2 14.7773 23.523 10.4617 -3.33206
37 2 14.7773 25.7412 12.2729 -3.35331
46 1 15.5964 26.0768 9.48399 -3.3581
52 1 7.34458 26.8846 13.2506 -3.3581
53 2 8.16369 27.2201 10.4617 -3.35331
54 2 8.16369 29.4384 12.2729 -3.33206
38 1 12.3048 26.8846 13.2506 -3.3581
43 2 13.1239 27.2201 10.4617 -3.35331
57 2 13.1239 29.4384 12.2729 -3.33206
58 1 10.6139 30.5393 13.2136 -3.36989
60 2 10.6438 28.3292 11.3673 -3.3624
45 2 15.604 28.3292 11.3673 -3.3624
62 1 15.5742 30.5393 13.2136 -3.36989
23 2 11.4705 33.1355 12.2729 -3.38542
12 2 16.4307 33.1355 12.2729 -3.38542
30 1 13.9723 34.2608 13.1514 -3.36099
24 1 18.9325 34.2608 13.1514 -3.36099
50 1 7.21577 29.1664 15.1472 -3.31065
49 1 9.77212 27.9999 14.208 -3.35189
51 1 9.55782 30.312 16.0915 -3.31289
56 1 12.176 29.1664 15.1472 -3.31065
39 1 14.7323 27.9999 14.208 -3.35189
55 1 14.518 30.312 16.0915 -3.31289
63 1 8.1131 31.5844 14.0291 -3.31734
64 1 8.07365 33.6514 15.7079 -3.06144
107 1 8.00899 35.5031 17.4634 -3.06811
127 1 6.92948 31.4043 17.0884 -3.27712
59 1 13.0733 31.5844 14.0291 -3.31734
65 1 13.0339 33.6514 15.7079 -3.06144
66 1 10.5614 32.7697 15.0125 -3.27517
117 1 12.9692 35.5031 17.4634 -3.06811
140 1 11.8897 31.4043 17.0884 -3.27712
61 1 15.5216 32.7697 15.0125 -3.27517
25 1 11.5367 35.3984 14.1318 -3.28551
47 1 11.7617 37.6766 16.0476 -3.28898
115 1 9.38518 38.742 17.054 -3.32553
27 1 16.4969 35.3984 14.1318 -3.28551
28 1 14.1382 36.449 15.1249 -3.27993
29 1 16.7219 37.6766 16.0476 -3.28898
129 1 14.3454 38.742 17.054 -3.32553
48 1 19.0985 36.449 15.1249 -3.27993
110 1 8.04612 39.6957 20.9106 -3.33271
114 1 8.01814 37.527 19.1882 -3.30687
111 1 10.4896 36.348 18.1839 -3.26601
112 1 10.5034 38.5638 19.99 -3.36117
113 1 12.9784 37.527 19.1882 -3.30687
122 1 13.0063 39.6957 20.9106 -3.33271
116 1 15.4498 36.348 18.1839 -3.26601
120 1 15.4637 38.5638 19.99 -3.36117
118 2 10.5405 40.7608 21.829 -3.35024
119 1 9.71868 43.3099 20.855 -3.36429
123 1 11.9993 39.8999 18.0051 -3.30136
124 1 12.1878 42.202 19.9101 -3.34071
126 1 9.62988 41.0801 18.9291 -3.33717
121 2 15.5007 40.7608 21.829 -3.35024
125 1 14.5901 41.0801 18.9291 -3.33717
128 1 16.9595 39.8999 18.0051 -3.30136
132 1 17.1481 42.202 19.9101 -3.34071
134 1 14.6789 43.3099 20.855 -3.36429
135 1 14.1896 43.7452 18.0078 -3.24665
139 1 19.1498 43.7452 18.0078 -3.24665
130 2 12.1939 44.458 21.829 -3.36655
131 1 11.3829 47.0371 20.8974 -3.37834
138 1 11.5287 44.7872 19.0346 -3.26712
133 2 17.1541 44.458 21.829 -3.36655
136 1 13.9153 45.9089 20.0234 -3.35759
137 1 16.4889 44.7872 19.0346 -3.26712
141 2 13.8473 48.1551 21.829 -3.3655
144 1 16.3431 47.0371 20.8974 -3.37834
142 1 18.8755 45.9089 20.0234 -3.35759
143 2 18.8075 48.1551 21.829 -3.3655
