#Lammps coordinate file for CSL - Axis: [1 1 1]  Angle: (1, 3) -> 59.99999999999999  Plane indices: [0 1 1]  z-position: [5.4336451853244885 16.300935555973464]  Repeats: 1 1 (3, 3) (black, white)  Fixed: 2.228  Boundary equiv: True
144 atoms

2 atom types

0.0 9.920433458271871 xlo xhi
0.0 11.091381789479609 ylo yhi
0.0 21.734580741297954 zlo zhi
4.9602167291359365 9.300406367129884 47.41565715002534 xy xz yz

Atoms

1 1 7.13031154813291 18.162137680272863 6.339252716211904
2 1 12.090528277268842 18.16213768027286 6.339252716211904
3 1 9.610419912700877 19.27127585922082 7.24486024709932
4 1 12.090528277268843 20.380414038168784 8.150467777986734
5 1 15.397339430026134 21.85926494343273 6.339252716211904
6 1 7.130311548132909 20.380414038168784 8.150467777986734
7 1 4.650203183564942 21.489552217116746 9.05607530887415
8 2 7.13031154813291 22.598690396064704 9.961682839761563
9 1 4.650203183564942 19.27127585922082 7.244860247099319
10 2 12.090528277268843 22.598690396064704 9.961682839761563
11 2 9.610419912700877 23.707828575012666 10.867290370648979
12 2 12.090528277268845 24.816966753960628 11.772897901536393
13 1 9.610419912700877 21.489552217116746 9.05607530887415
14 1 10.437122700890198 21.85926494343273 6.339252716211904
15 1 7.957014336322232 22.968403122380693 7.244860247099319
16 1 10.4371227008902 24.077541301328655 8.150467777986734
17 1 15.397339430026134 24.07754130132865 8.150467777986734
18 1 12.917231065458168 25.186679480276617 9.05607530887415
19 2 15.397339430026136 26.295817659224575 9.961682839761563
20 1 12.917231065458166 22.968403122380693 7.24486024709932
21 1 13.74393385364749 25.5563922065926 6.339252716211903
22 1 16.22404221821546 26.665530385540563 7.244860247099318
23 2 7.1303115481329105 24.816966753960628 11.772897901536393
24 1 4.650203183564943 25.92610493290859 12.678505432423808
25 1 7.1303115481329105 27.035243111856552 13.584112963311222
26 2 4.650203183564943 23.70782857501267 10.867290370648979
27 1 12.090528277268845 27.035243111856552 13.584112963311222
28 1 9.610419912700879 28.14438129080451 14.489720494198638
29 1 12.090528277268845 29.253519469752472 15.395328025086053
30 1 9.610419912700879 25.92610493290859 12.678505432423808
31 2 10.4371227008902 26.295817659224575 9.961682839761563
32 2 7.957014336322233 27.404955838172537 10.867290370648979
33 2 10.4371227008902 28.5140940171205 11.772897901536393
34 1 7.957014336322233 25.186679480276617 9.05607530887415
35 1 8.783717124511554 25.5563922065926 6.339252716211903
36 1 8.783717124511554 27.774668564488525 8.150467777986734
37 2 15.397339430026136 28.5140940171205 11.772897901536393
38 1 12.917231065458168 29.62323219606846 12.678505432423808
39 1 15.397339430026136 30.732370375016423 13.584112963311224
40 2 12.917231065458168 27.404955838172537 10.867290370648979
41 1 13.74393385364749 27.774668564488522 8.150467777986734
42 1 11.263825489079522 28.883806743436487 9.05607530887415
43 2 13.74393385364749 29.992944922384446 9.961682839761563
44 1 11.263825489079522 26.665530385540563 7.244860247099319
45 2 16.22404221821546 31.102083101332408 10.867290370648977
46 1 16.22404221821546 28.883806743436484 9.05607530887415
47 1 7.130311548132911 29.253519469752476 15.395328025086052
48 1 4.650203183564944 28.144381290804514 14.489720494198638
49 1 10.4371227008902 30.732370375016423 13.584112963311222
50 1 7.957014336322235 31.84150855396438 14.489720494198638
51 1 10.437122700890201 32.95064673291235 15.395328025086053
52 1 7.957014336322234 29.62323219606846 12.678505432423808
53 2 8.783717124511554 29.992944922384446 9.961682839761563
54 2 8.783717124511556 32.21122128028037 11.772897901536393
55 1 15.397339430026136 32.95064673291235 15.395328025086052
56 1 12.917231065458168 31.84150855396438 14.48972049419864
57 2 13.74393385364749 32.21122128028037 11.772897901536393
58 1 11.263825489079524 33.32035945922833 12.678505432423808
59 1 13.743933853647492 34.429497638176294 13.584112963311224
60 2 11.263825489079522 31.102083101332408 10.867290370648979
61 1 16.22404221821546 35.53863581712425 14.489720494198636
62 1 16.224042218215455 33.32035945922833 12.678505432423808
63 1 8.783717124511556 34.429497638176294 13.58411296331122
64 1 8.783717124511556 36.64777399607222 15.395328025086052
65 1 13.743933853647492 36.64777399607222 15.39532802508605
66 1 11.263825489079524 35.53863581712425 14.489720494198638
67 1 0.0 2.218276357895922 1.8112150617748295
68 2 2.480108364567968 1.109138178947962 0.9056075308874146
69 2 4.960216729135936 0.0 -1.9455644930253686e-16
70 2 0.0 0.0 0.0
71 1 0.0 6.654829073687768 5.4336451853244885
72 1 2.480108364567968 3.327414536843884 2.7168225926622442
73 1 2.4801083645679682 5.545690894739806 4.528037654437074
74 1 4.960216729135936 4.436552715791845 3.622430123549659
75 1 0.0 4.436552715791845 3.622430123549659
76 1 1.6534055763786455 5.915403621055794 1.811215061774829
77 2 7.440325093703903 1.109138178947962 0.9056075308874145
78 1 7.440325093703903 3.327414536843884 2.7168225926622442
79 1 4.960216729135936 2.218276357895922 1.8112150617748293
80 2 4.133513940946613 4.806265442107832 0.9056075308874143
81 2 6.61362230551458 3.697127263159871 -5.836693479076105e-16
82 2 1.6534055763786455 3.697127263159871 -3.8911289860507373e-16
83 1 1.6534055763786455 10.351956336847639 5.4336451853244885
84 1 7.440325093703903 5.545690894739806 4.528037654437074
85 1 4.960216729135936 6.654829073687768 5.4336451853244885
86 1 4.133513940946613 7.024541800003755 2.716822592662244
87 1 4.133513940946613 9.242818157899677 4.528037654437074
88 1 6.61362230551458 8.133679978951715 3.6224301235496585
89 1 1.6534055763786455 8.133679978951717 3.6224301235496585
90 1 3.3068111527572905 9.612530884215664 1.8112150617748288
91 2 9.093730670082548 4.806265442107832 0.9056075308874142
92 1 9.093730670082547 7.024541800003755 2.716822592662244
93 1 6.61362230551458 5.915403621055793 1.8112150617748288
94 2 5.7869195173252574 8.503392705267704 0.9056075308874139
95 2 8.267027881893226 7.394254526319742 -9.727822465126844e-16
96 2 3.3068111527572905 7.394254526319742 -7.782257972101475e-16
97 1 3.306811152757291 14.04908360000751 5.433645185324488
98 1 9.093730670082547 9.242818157899677 4.528037654437074
99 1 6.613622305514581 10.351956336847639 5.4336451853244885
100 1 5.786919517325258 10.721669063163626 2.7168225926622434
101 1 5.786919517325258 12.939945421059548 4.528037654437073
102 1 8.267027881893226 11.830807242111586 3.622430123549658
103 1 3.306811152757291 11.830807242111588 3.622430123549658
104 2 10.747136246461192 8.503392705267704 0.9056075308874137
105 1 10.747136246461192 10.721669063163626 2.7168225926622434
106 1 8.267027881893226 9.612530884215664 1.8112150617748286
107 1 9.300406367129883 40.760828076337575 16.300935555973467
108 1 10.747136246461192 12.939945421059548 4.528037654437073
109 1 8.267027881893226 14.04908360000751 5.433645185324488
110 1 9.300406367129883 45.197380792129415 19.923365679523123
111 1 11.78051473169785 41.86996625528553 17.20654308686088
112 1 11.780514731697851 44.08824261318146 19.01775814863571
113 1 14.260623096265817 42.9791044342335 18.112150617748295
114 1 9.300406367129883 42.9791044342335 18.112150617748295
115 1 10.953811943508526 44.45795533949744 16.300935555973464
116 1 16.740731460833786 41.86996625528553 17.20654308686088
117 1 14.260623096265817 40.760828076337575 16.300935555973464
118 2 11.780514731697851 46.306518971077374 20.82897321041054
119 1 10.953811943508528 48.894508055289286 19.923365679523123
120 1 16.740731460833786 44.08824261318146 19.017758148635707
121 2 16.740731460833786 46.306518971077374 20.82897321041054
122 1 14.260623096265817 45.197380792129415 19.923365679523126
123 1 13.433920308076495 45.567093518445404 17.20654308686088
124 1 13.433920308076496 47.78536987634133 19.01775814863571
125 1 15.914028672644463 46.67623169739337 18.112150617748295
126 1 10.953811943508528 46.67623169739337 18.112150617748295
127 1 12.607217519887172 48.15508260265731 16.300935555973464
128 1 18.39413703721243 45.567093518445404 17.20654308686088
129 1 15.914028672644463 44.45795533949744 16.300935555973464
130 2 13.433920308076496 50.003646234237245 20.82897321041054
131 1 12.607217519887174 52.59163531844916 19.923365679523123
132 1 18.39413703721243 47.78536987634133 19.017758148635707
133 2 18.39413703721243 50.003646234237245 20.82897321041054
134 1 15.914028672644463 48.894508055289286 19.923365679523126
135 1 15.08732588445514 49.264220781605275 17.20654308686088
136 1 15.087325884455142 51.4824971395012 19.01775814863571
137 1 17.56743424902311 50.37335896055324 18.112150617748295
138 1 12.607217519887174 50.37335896055324 18.112150617748295
139 1 20.047542613591077 49.264220781605275 17.20654308686088
140 1 17.56743424902311 48.15508260265731 16.300935555973464
141 2 15.087325884455142 53.70077349739712 20.82897321041054
142 1 20.047542613591077 51.4824971395012 19.017758148635707
143 2 20.047542613591077 53.70077349739712 20.82897321041054
144 1 17.56743424902311 52.59163531844916 19.923365679523126
