LAMMPS (29 Aug 2024 - Update 2)
#---------------------------------------------------------------------------------------------------
# Initilise important features of simulation
#---------------------------------------------------------------------------------------------------
units 		metal	# Use metals units (Ang, ps, eV, bar, etc.)
dimension 	3		# Run the simulation in three dimensions
boundary 	p p p	# Use periodic boundaries in all three dimensions
atom_style 	atomic	#
#box tilt large		# Allow larger than normal tilt factors

variable T_start equal 600
variable T_end equal 200
variable tstep equal 0.002
timestep ${tstep}
timestep 0.002

read_data   lammps.txt	# Read in atom coordinates from a file
Reading data file ...
  triclinic box = (0 0 0) to (9.9204335 11.091382 24.734581) with tilt (4.9602167 15.500677 33.55143)
WARNING: Triclinic box skew is large. LAMMPS will run inefficiently. (src/domain.cpp:221)
  1 by 1 by 1 MPI processor grid
  reading atoms ...
  144 atoms
  read_data CPU = 0.001 seconds

#---------------------------------------------------------------------------------------------------
# Define how the forces between the atoms will be modelled
#---------------------------------------------------------------------------------------------------
pair_style eam/alloy
pair_coeff * * Zope-Ti-Al-2003.eam.alloy.txt Al Al

#---------------------------------------------------------------------------------------------------
# Set behaviour of simulation
#---------------------------------------------------------------------------------------------------
group g_fixed type 2
36 atoms in group g_fixed
group g_other type 1
108 atoms in group g_other
fix f_freeze g_fixed setforce 0.0 0.0 0.0 	# Hold atoms of type 2 fixed in place
#fix f_constrain g_other setforce 0.0 0.0 NULL 	# All atoms of type 1 to move only in z direction

#---------------------------------------------------------------------------------------------------
# Specify what information to write out
#---------------------------------------------------------------------------------------------------
thermo_style custom step atoms temp pe ke etotal fmax
thermo_modify format 6 %20.10f
thermo 1000

#compute statom all stress/atom NULL
compute peatom all pe/atom
dump 1 all custom 100000 dump.* id type x y z c_peatom
dump_modify 1 first yes


#---------------------------------------------------------------------------------------------------
# Initial relaxation
#---------------------------------------------------------------------------------------------------
velocity all set 0.0 0.0 0.0

min_style 	cg
min_modify dmax 0.1
minimize 	0.0 1.0e-6 10000 100000
Neighbor list info ...
  update: every = 1 steps, delay = 0 steps, check = yes
  max neighbors/atom: 2000, page size: 100000
  master list distance cutoff = 8.724884
  ghost atom cutoff = 8.724884
  binsize = 4.362442, bins = 7 11 6
  1 neighbor lists, perpetual/occasional/extra = 1 0 0
  (1) pair eam/alloy, perpetual
      attributes: half, newton on
      pair build: half/bin/atomonly/newton/tri
      stencil: half/bin/3d/tri
      bin: standard
Per MPI rank memory allocation (min/avg/max) = 4.648 | 4.648 | 4.648 Mbytes
   Step        Atoms         Temp          PotEng         KinEng         TotEng          Fmax     
         0         144   0             -460.16307      0                  -460.1630729387  2.9368918    
       114         144   0             -469.80659      0                  -469.8065876906  1.5363799e-07
Loop time of 0.0172367 on 1 procs for 114 steps with 144 atoms

99.5% CPU use with 1 MPI tasks x no OpenMP threads

Minimization stats:
  Stopping criterion = force tolerance
  Energy initial, next-to-last, final = 
     -460.163072938721  -469.806587690607  -469.806587690604
  Force two-norm initial, final = 10.194871 9.7562492e-07
  Force max component initial, final = 2.9368918 1.5363799e-07
  Final line search alpha, max atom move = 1 1.5363799e-07
  Iterations, force evaluations = 114 217

MPI task timing breakdown:
Section |  min time  |  avg time  |  max time  |%varavg| %total
---------------------------------------------------------------
Pair    | 0.015708   | 0.015708   | 0.015708   |   0.0 | 91.13
Neigh   | 0          | 0          | 0          |   0.0 |  0.00
Comm    | 0.00085929 | 0.00085929 | 0.00085929 |   0.0 |  4.99
Output  | 0          | 0          | 0          |   0.0 |  0.00
Modify  | 3.067e-05  | 3.067e-05  | 3.067e-05  |   0.0 |  0.18
Other   |            | 0.000639   |            |       |  3.71

Nlocal:            144 ave         144 max         144 min
Histogram: 1 0 0 0 0 0 0 0 0 0
Nghost:           2322 ave        2322 max        2322 min
Histogram: 1 0 0 0 0 0 0 0 0 0
Neighs:          10876 ave       10876 max       10876 min
Histogram: 1 0 0 0 0 0 0 0 0 0

Total # of neighbors = 10876
Ave neighs/atom = 75.527778
Neighbor list builds = 0
Dangerous builds = 0
#---------------------------------------------------------------------------------------------------
# Anneal boundary structures
#---------------------------------------------------------------------------------------------------
reset_timestep 100000
fix md g_other nvt temp ${T_start} ${T_end} $(100.0*v_tstep)
fix md g_other nvt temp 600 ${T_end} $(100.0*v_tstep)
fix md g_other nvt temp 600 200 $(100.0*v_tstep)
fix md g_other nvt temp 600 200 0.2000000000000000111

velocity all create ${T_start} 4928459 rot yes mom yes dist gaussian
velocity all create 600 4928459 rot yes mom yes dist gaussian
run 10000
Per MPI rank memory allocation (min/avg/max) = 4.905 | 4.905 | 4.905 Mbytes
   Step        Atoms         Temp          PotEng         KinEng         TotEng          Fmax     
    100000         144   600           -469.80659      11.09052           -458.7160672496  1.5363799e-07
    101000         144   582.34584     -462.60031      10.764197          -451.8361154516  1.3429618    
    102000         144   655.43447     -462.86543      12.115182          -450.7502526393  1.1372326    
    103000         144   545.53465     -463.70564      10.083772          -453.6218706175  1.189758     
    104000         144   545.78306     -463.6405       10.088364          -453.5521400571  1.2294393    
    105000         144   505.26177     -465.28205      9.33936            -455.9426906104  0.93852464   
    106000         144   500.20808     -465.57204      9.2459465          -456.3260925936  1.2406389    
    107000         144   431.27599     -465.9979       7.9717919          -458.0261054721  0.99134589   
    108000         144   373.31804     -466.69635      6.9004856          -459.7958687201  1.0242366    
    109000         144   364.53542     -467.46211      6.7381458          -460.7239619901  0.8049775    
    110000         144   331.70315     -468.24592      6.1312677          -462.1146507572  0.87480473   
Loop time of 0.8237 on 1 procs for 10000 steps with 144 atoms

Performance: 2097.852 ns/day, 0.011 hours/ns, 12140.345 timesteps/s, 1.748 Matom-step/s
99.8% CPU use with 1 MPI tasks x no OpenMP threads

MPI task timing breakdown:
Section |  min time  |  avg time  |  max time  |%varavg| %total
---------------------------------------------------------------
Pair    | 0.70744    | 0.70744    | 0.70744    |   0.0 | 85.89
Neigh   | 0.051399   | 0.051399   | 0.051399   |   0.0 |  6.24
Comm    | 0.043521   | 0.043521   | 0.043521   |   0.0 |  5.28
Output  | 5.5084e-05 | 5.5084e-05 | 5.5084e-05 |   0.0 |  0.01
Modify  | 0.010772   | 0.010772   | 0.010772   |   0.0 |  1.31
Other   |            | 0.01052    |            |       |  1.28

Nlocal:            144 ave         144 max         144 min
Histogram: 1 0 0 0 0 0 0 0 0 0
Nghost:           2444 ave        2444 max        2444 min
Histogram: 1 0 0 0 0 0 0 0 0 0
Neighs:          10565 ave       10565 max       10565 min
Histogram: 1 0 0 0 0 0 0 0 0 0

Total # of neighbors = 10565
Ave neighs/atom = 73.368056
Neighbor list builds = 115
Dangerous builds = 0
unfix md

#---------------------------------------------------------------------------------------------------
# Final relaxation
#---------------------------------------------------------------------------------------------------
velocity all set 0.0 0.0 0.0

min_style 	cg
min_modify dmax 0.1
minimize 	0.0 1.0e-6 10000 100000
Per MPI rank memory allocation (min/avg/max) = 6.031 | 6.031 | 6.031 Mbytes
   Step        Atoms         Temp          PotEng         KinEng         TotEng          Fmax     
    110000         144   0             -468.24592      0                  -468.2459184502  0.87480473   
    110084         144   0             -470.85311      0                  -470.8531132176  1.6558368e-07
Loop time of 0.0140096 on 1 procs for 84 steps with 144 atoms

98.6% CPU use with 1 MPI tasks x no OpenMP threads

Minimization stats:
  Stopping criterion = force tolerance
  Energy initial, next-to-last, final = 
     -468.245918450161  -470.853113217579  -470.853113217581
  Force two-norm initial, final = 3.8613919 9.1775435e-07
  Force max component initial, final = 0.87480473 1.6558368e-07
  Final line search alpha, max atom move = 1 1.6558368e-07
  Iterations, force evaluations = 84 165

MPI task timing breakdown:
Section |  min time  |  avg time  |  max time  |%varavg| %total
---------------------------------------------------------------
Pair    | 0.012638   | 0.012638   | 0.012638   |   0.0 | 90.21
Neigh   | 0          | 0          | 0          |   0.0 |  0.00
Comm    | 0.00071467 | 0.00071467 | 0.00071467 |   0.0 |  5.10
Output  | 0          | 0          | 0          |   0.0 |  0.00
Modify  | 2.304e-05  | 2.304e-05  | 2.304e-05  |   0.0 |  0.16
Other   |            | 0.0006342  |            |       |  4.53

Nlocal:            144 ave         144 max         144 min
Histogram: 1 0 0 0 0 0 0 0 0 0
Nghost:           2470 ave        2470 max        2470 min
Histogram: 1 0 0 0 0 0 0 0 0 0
Neighs:          10582 ave       10582 max       10582 min
Histogram: 1 0 0 0 0 0 0 0 0 0

Total # of neighbors = 10582
Ave neighs/atom = 73.486111
Neighbor list builds = 0
Dangerous builds = 0

Total wall time: 0:00:00
