ITEM: TIMESTEP
81
ITEM: NUMBER OF ATOMS
144
ITEM: BOX BOUNDS xy xz yz pp pp pp
0.0000000000000000e+00 2.7901219101389643e+01 4.9602167291359365e+00
0.0000000000000000e+00 4.4642811702655436e+01 1.3020568913981837e+01
0.0000000000000000e+00 2.5734580741297954e+01 3.3551429913175824e+01
ITEM: ATOMS id type x y z c_peatom
70 2 0 0 0 -3.35727
82 2 1.65341 3.69713 0 -3.33813
69 2 4.96022 0 0 -3.35727
81 2 6.61362 3.69713 0 -3.33813
80 2 4.13351 4.80627 0.905608 -3.3421
86 1 4.11719 6.90712 2.90418 -3.3905
88 1 6.59119 8.01772 3.8275 -3.22678
91 2 9.09373 4.80627 0.905608 -3.3421
92 1 9.07741 6.90712 2.90418 -3.3905
93 1 6.61191 5.86842 1.96341 -3.37147
94 2 5.78692 8.50339 0.905608 -3.35014
95 2 8.26703 7.39425 0 -3.33813
76 1 11.5721 5.86842 1.96341 -3.37147
89 1 11.5514 8.01772 3.8275 -3.22678
96 2 13.2272 7.39425 0 -3.33813
104 2 10.7471 8.50339 0.905608 -3.35014
87 1 4.13578 9.1885 4.83296 -2.95412
68 2 7.44033 12.2005 0.905608 -3.37026
98 1 9.096 9.1885 4.83296 -2.95412
100 1 5.88393 10.6277 2.80824 -3.31039
101 1 6.07852 12.6858 4.77757 -3.08998
102 1 8.44484 11.7297 3.6966 -3.22334
106 1 8.3144 9.52395 1.91495 -3.35872
77 2 12.4005 12.2005 0.905608 -3.37026
79 1 9.96606 13.2647 1.91259 -3.38525
90 1 13.2746 9.52395 1.91495 -3.35872
103 1 13.4051 11.7297 3.6966 -3.22334
105 1 10.8441 10.6277 2.80824 -3.31039
108 1 11.0387 12.6858 4.77757 -3.08998
67 1 14.9263 13.2647 1.91259 -3.38525
72 1 7.49463 14.3418 2.87203 -3.37307
73 1 7.42061 16.3723 4.85804 -3.05867
74 1 9.9553 15.3543 3.80554 -3.278
78 1 12.4548 14.3418 2.87203 -3.37307
84 1 12.3808 16.3723 4.85804 -3.05867
75 1 14.9155 15.3543 3.80554 -3.278
1 1 8.81109 11.5179 8.09423 -3.09036
9 1 6.36046 12.4582 9.15869 -3.24121
99 1 6.27038 10.4552 7.03432 -2.88909
2 1 13.7713 11.5179 8.09423 -3.09036
3 1 11.3207 12.4582 9.15869 -3.24121
83 1 11.2306 10.4552 7.03432 -2.88909
5 1 7.21147 14.9725 8.02259 -2.88922
6 1 8.89074 13.5529 10.0706 -3.32229
17 1 7.32053 17.199 10.0436 -3.28091
109 1 8.62513 13.7122 5.78959 -2.95571
4 1 13.851 13.5529 10.0706 -3.32229
14 1 12.1717 14.9725 8.02259 -2.88922
15 1 9.72788 16.1433 9.01468 -3.09016
16 1 12.2808 17.199 10.0436 -3.28091
85 1 9.86104 17.5352 5.74788 -2.79572
97 1 13.5853 13.7122 5.78959 -2.95571
20 1 14.6881 16.1433 9.01468 -3.09016
71 1 14.8213 17.5352 5.74788 -2.79572
22 1 8.29598 19.8791 9.07447 -3.16539
35 1 10.8555 18.8 8.159 -2.92379
36 1 10.7048 20.9349 10.0358 -3.3691
44 1 13.2562 19.8791 9.07447 -3.16539
21 1 15.8157 18.8 8.159 -2.92379
41 1 15.665 20.9349 10.0358 -3.3691
7 1 6.45734 14.6372 10.9638 -3.37808
8 2 8.99039 15.6666 11.9617 -3.36335
10 2 13.9506 15.6666 11.9617 -3.36335
13 1 11.4176 14.6372 10.9638 -3.37808
31 2 12.2972 19.3637 11.9617 -3.36967
32 2 9.8171 20.4728 12.8673 -3.35945
33 2 12.2972 21.582 13.7729 -3.3616
34 1 9.81861 18.2905 10.9504 -3.37681
42 1 13.146 22.0016 10.9312 -3.39048
18 1 14.7788 18.2905 10.9504 -3.37681
19 2 17.2574 19.3637 11.9617 -3.36967
37 2 17.2574 21.582 13.7729 -3.3616
40 2 14.7773 20.4728 12.8673 -3.35945
46 1 18.1062 22.0016 10.9312 -3.39048
52 1 9.79498 22.6412 14.8034 -3.39048
53 2 10.6438 23.0608 11.9617 -3.3616
54 2 10.6438 25.2791 13.7729 -3.36967
58 1 13.1224 26.3523 14.7841 -3.37681
60 2 13.1239 24.17 12.8673 -3.35945
38 1 14.7552 22.6412 14.8034 -3.39048
43 2 15.604 23.0608 11.9617 -3.3616
45 2 18.0841 24.17 12.8673 -3.35945
57 2 15.604 25.2791 13.7729 -3.36967
62 1 18.0826 26.3523 14.7841 -3.37681
26 2 11.4705 27.8671 12.8673 -3.34972
11 2 16.4307 27.8671 12.8673 -3.34972
23 2 13.9506 28.9762 13.7729 -3.36335
30 1 16.4837 30.0056 14.7708 -3.37808
12 2 18.9108 28.9762 13.7729 -3.36335
24 1 21.4439 30.0056 14.7708 -3.37808
49 1 12.2362 23.7079 15.6988 -3.3691
51 1 12.0855 25.8428 17.5756 -2.92379
39 1 17.1964 23.7079 15.6988 -3.3691
55 1 17.0457 25.8428 17.5756 -2.92379
56 1 14.645 24.7637 16.6601 -3.16539
50 1 19.6052 24.7637 16.6601 -3.16539
25 1 14.0503 31.0899 15.664 -3.32229
66 1 13.2131 28.4995 16.7199 -3.09016
107 1 13.08 27.1076 19.9867 -2.79572
59 1 15.6205 27.4439 15.691 -3.28091
61 1 18.1733 28.4995 16.7199 -3.09016
65 1 15.7295 29.6703 17.712 -2.88922
115 1 14.3159 30.9306 19.945 -2.95571
117 1 18.0402 27.1076 19.9867 -2.79572
27 1 19.0105 31.0899 15.664 -3.32229
63 1 20.5807 27.4439 15.691 -3.28091
64 1 20.6898 29.6703 17.712 -2.88922
129 1 19.2761 30.9306 19.945 -2.95571
28 1 16.5805 32.1846 16.5759 -3.24121
47 1 14.1299 33.1249 17.6403 -3.09036
127 1 16.6706 34.1876 18.7003 -2.88909
29 1 19.0901 33.1249 17.6403 -3.09036
48 1 21.5408 32.1846 16.5759 -3.24121
140 1 21.6308 34.1876 18.7003 -2.88909
114 1 12.9857 29.2885 21.929 -3.278
111 1 15.5204 28.2705 20.8765 -3.05867
112 1 15.4464 30.301 22.8626 -3.37307
113 1 17.9459 29.2885 21.929 -3.278
116 1 20.4806 28.2705 20.8765 -3.05867
120 1 20.4066 30.301 22.8626 -3.37307
110 1 12.9749 31.3781 23.822 -3.38525
118 2 15.5007 32.4423 24.829 -3.37026
119 1 14.6266 35.1189 23.8196 -3.35872
122 1 17.9352 31.3781 23.822 -3.38525
123 1 16.8625 31.957 20.957 -3.08998
124 1 17.0571 34.0151 22.9263 -3.31039
126 1 14.4962 32.9131 22.038 -3.22334
121 2 20.4609 32.4423 24.829 -3.37026
125 1 19.4564 32.9131 22.038 -3.22334
128 1 21.8227 31.957 20.957 -3.08998
132 1 22.0173 34.0151 22.9263 -3.31039
134 1 19.5868 35.1189 23.8196 -3.35872
135 1 18.8052 35.4543 20.9016 -2.95412
139 1 23.7654 35.4543 20.9016 -2.95412
130 2 17.1541 36.1394 24.829 -3.35014
131 1 16.3291 38.7744 23.7712 -3.37147
138 1 16.3498 36.6251 21.9071 -3.22678
133 2 22.1143 36.1394 24.829 -3.35014
136 1 18.8238 37.7357 22.8304 -3.3905
137 1 21.31 36.6251 21.9071 -3.22678
141 2 18.8075 39.8365 24.829 -3.3421
144 1 21.2893 38.7744 23.7712 -3.37147
142 1 23.784 37.7357 22.8304 -3.3905
143 2 23.7677 39.8365 24.829 -3.3421
