LAMMPS (29 Aug 2024 - Update 2)
#---------------------------------------------------------------------------------------------------
# Initilise important features of simulation
#---------------------------------------------------------------------------------------------------
units 		metal	# Use metals units (Ang, ps, eV, bar, etc.)
dimension 	3		# Run the simulation in three dimensions
boundary 	p p p	# Use periodic boundaries in all three dimensions
atom_style 	atomic	#
#box tilt large		# Allow larger than normal tilt factors

variable T_start equal 600
variable T_end equal 200
variable tstep equal 0.002
timestep ${tstep}
timestep 0.002

read_data   lammps.txt	# Read in atom coordinates from a file
Reading data file ...
  triclinic box = (0 0 0) to (9.9204335 11.091382 20.734581) with tilt (4.9602167 1.8600813 28.005739)
WARNING: Triclinic box skew is large. LAMMPS will run inefficiently. (src/domain.cpp:221)
  1 by 1 by 1 MPI processor grid
  reading atoms ...
  144 atoms
  read_data CPU = 0.001 seconds

#---------------------------------------------------------------------------------------------------
# Define how the forces between the atoms will be modelled
#---------------------------------------------------------------------------------------------------
pair_style eam/alloy
pair_coeff * * Zope-Ti-Al-2003.eam.alloy.txt Al Al

#---------------------------------------------------------------------------------------------------
# Set behaviour of simulation
#---------------------------------------------------------------------------------------------------
group g_fixed type 2
36 atoms in group g_fixed
group g_other type 1
108 atoms in group g_other
fix f_freeze g_fixed setforce 0.0 0.0 0.0 	# Hold atoms of type 2 fixed in place
#fix f_constrain g_other setforce 0.0 0.0 NULL 	# All atoms of type 1 to move only in z direction

#---------------------------------------------------------------------------------------------------
# Specify what information to write out
#---------------------------------------------------------------------------------------------------
thermo_style custom step atoms temp pe ke etotal fmax
thermo_modify format 6 %20.10f
thermo 1000

#compute statom all stress/atom NULL
compute peatom all pe/atom
dump 1 all custom 100000 dump.* id type x y z c_peatom
dump_modify 1 first yes


#---------------------------------------------------------------------------------------------------
# Initial relaxation
#---------------------------------------------------------------------------------------------------
velocity all set 0.0 0.0 0.0

min_style 	cg
min_modify dmax 0.1
minimize 	0.0 1.0e-6 10000 100000
Neighbor list info ...
  update: every = 1 steps, delay = 0 steps, check = yes
  max neighbors/atom: 2000, page size: 100000
  master list distance cutoff = 8.724884
  ghost atom cutoff = 8.724884
  binsize = 4.362442, bins = 4 9 5
  1 neighbor lists, perpetual/occasional/extra = 1 0 0
  (1) pair eam/alloy, perpetual
      attributes: half, newton on
      pair build: half/bin/atomonly/newton/tri
      stencil: half/bin/3d/tri
      bin: standard
Per MPI rank memory allocation (min/avg/max) = 4.696 | 4.696 | 4.696 Mbytes
   Step        Atoms         Temp          PotEng         KinEng         TotEng          Fmax     
         0         144   0             -446.04145      0                  -446.0414533357  3.7445008    
        43         144   0             -473.19541      0                  -473.1954145264  1.3512248e-07
Loop time of 0.00804446 on 1 procs for 43 steps with 144 atoms

97.6% CPU use with 1 MPI tasks x no OpenMP threads

Minimization stats:
  Stopping criterion = force tolerance
  Energy initial, next-to-last, final = 
     -446.041453335678  -473.195414526411  -473.195414526411
  Force two-norm initial, final = 21.668553 9.6845022e-07
  Force max component initial, final = 3.7445008 1.3512248e-07
  Final line search alpha, max atom move = 1 1.3512248e-07
  Iterations, force evaluations = 43 80

MPI task timing breakdown:
Section |  min time  |  avg time  |  max time  |%varavg| %total
---------------------------------------------------------------
Pair    | 0.0071795  | 0.0071795  | 0.0071795  |   0.0 | 89.25
Neigh   | 0          | 0          | 0          |   0.0 |  0.00
Comm    | 0.000397   | 0.000397   | 0.000397   |   0.0 |  4.94
Output  | 0          | 0          | 0          |   0.0 |  0.00
Modify  | 1.167e-05  | 1.167e-05  | 1.167e-05  |   0.0 |  0.15
Other   |            | 0.0004563  |            |       |  5.67

Nlocal:            144 ave         144 max         144 min
Histogram: 1 0 0 0 0 0 0 0 0 0
Nghost:           2960 ave        2960 max        2960 min
Histogram: 1 0 0 0 0 0 0 0 0 0
Neighs:          12812 ave       12812 max       12812 min
Histogram: 1 0 0 0 0 0 0 0 0 0

Total # of neighbors = 12812
Ave neighs/atom = 88.972222
Neighbor list builds = 0
Dangerous builds = 0
#---------------------------------------------------------------------------------------------------
# Anneal boundary structures
#---------------------------------------------------------------------------------------------------
reset_timestep 100000
fix md g_other nvt temp ${T_start} ${T_end} $(100.0*v_tstep)
fix md g_other nvt temp 600 ${T_end} $(100.0*v_tstep)
fix md g_other nvt temp 600 200 $(100.0*v_tstep)
fix md g_other nvt temp 600 200 0.2000000000000000111

velocity all create ${T_start} 4928459 rot yes mom yes dist gaussian
velocity all create 600 4928459 rot yes mom yes dist gaussian
run 10000
Per MPI rank memory allocation (min/avg/max) = 4.952 | 4.952 | 4.952 Mbytes
   Step        Atoms         Temp          PotEng         KinEng         TotEng          Fmax     
    100000         144   600           -473.19541      11.09052           -462.1048940854  1.3512249e-07
    101000         144   560.63335     -465.09404      10.362859          -454.7311785497  1.5580562    
    102000         144   550.21054     -464.27955      10.170202          -454.1093496435  1.4444644    
    103000         144   520.53803     -466.01268      9.6217295          -456.3909522427  1.5403683    
    104000         144   539.44143     -466.45607      9.9711437          -456.4849279532  1.0709654    
    105000         144   506.21734     -467.80668      9.3570228          -458.4496568051  1.5263493    
    106000         144   486.02269     -467.69895      8.9837409          -458.7152129300  1.3520656    
    107000         144   437.21829     -468.48613      8.0816307          -460.4044987096  1.3153406    
    108000         144   406.91692     -468.95551      7.521534           -461.4339729809  1.0522668    
    109000         144   372.9818      -470.07056      6.8942705          -463.1762921573  1.1239642    
    110000         144   335.22574     -470.4661       6.1963799          -464.2697249809  0.87006016   
Loop time of 0.927519 on 1 procs for 10000 steps with 144 atoms

Performance: 1863.034 ns/day, 0.013 hours/ns, 10781.447 timesteps/s, 1.553 Matom-step/s
99.1% CPU use with 1 MPI tasks x no OpenMP threads

MPI task timing breakdown:
Section |  min time  |  avg time  |  max time  |%varavg| %total
---------------------------------------------------------------
Pair    | 0.84724    | 0.84724    | 0.84724    |   0.0 | 91.34
Neigh   | 0.0079829  | 0.0079829  | 0.0079829  |   0.0 |  0.86
Comm    | 0.049404   | 0.049404   | 0.049404   |   0.0 |  5.33
Output  | 9.1166e-05 | 9.1166e-05 | 9.1166e-05 |   0.0 |  0.01
Modify  | 0.011213   | 0.011213   | 0.011213   |   0.0 |  1.21
Other   |            | 0.01159    |            |       |  1.25

Nlocal:            144 ave         144 max         144 min
Histogram: 1 0 0 0 0 0 0 0 0 0
Nghost:           2818 ave        2818 max        2818 min
Histogram: 1 0 0 0 0 0 0 0 0 0
Neighs:          12549 ave       12549 max       12549 min
Histogram: 1 0 0 0 0 0 0 0 0 0

Total # of neighbors = 12549
Ave neighs/atom = 87.145833
Neighbor list builds = 13
Dangerous builds = 0
unfix md

#---------------------------------------------------------------------------------------------------
# Final relaxation
#---------------------------------------------------------------------------------------------------
velocity all set 0.0 0.0 0.0

min_style 	cg
min_modify dmax 0.1
minimize 	0.0 1.0e-6 10000 100000
Per MPI rank memory allocation (min/avg/max) = 6.077 | 6.077 | 6.077 Mbytes
   Step        Atoms         Temp          PotEng         KinEng         TotEng          Fmax     
    110000         144   0             -470.4661       0                  -470.4661048829  0.87006016   
    110050         144   0             -473.19541      0                  -473.1954145264  1.7845645e-07
Loop time of 0.010186 on 1 procs for 50 steps with 144 atoms

97.8% CPU use with 1 MPI tasks x no OpenMP threads

Minimization stats:
  Stopping criterion = force tolerance
  Energy initial, next-to-last, final = 
     -470.466104882879  -473.195414526409  -473.195414526409
  Force two-norm initial, final = 5.3454317 9.9518757e-07
  Force max component initial, final = 0.87006016 1.7845645e-07
  Final line search alpha, max atom move = 1 1.7845645e-07
  Iterations, force evaluations = 50 99

MPI task timing breakdown:
Section |  min time  |  avg time  |  max time  |%varavg| %total
---------------------------------------------------------------
Pair    | 0.0091302  | 0.0091302  | 0.0091302  |   0.0 | 89.64
Neigh   | 0          | 0          | 0          |   0.0 |  0.00
Comm    | 0.00049121 | 0.00049121 | 0.00049121 |   0.0 |  4.82
Output  | 0          | 0          | 0          |   0.0 |  0.00
Modify  | 1.3959e-05 | 1.3959e-05 | 1.3959e-05 |   0.0 |  0.14
Other   |            | 0.0005505  |            |       |  5.40

Nlocal:            144 ave         144 max         144 min
Histogram: 1 0 0 0 0 0 0 0 0 0
Nghost:           2777 ave        2777 max        2777 min
Histogram: 1 0 0 0 0 0 0 0 0 0
Neighs:          12565 ave       12565 max       12565 min
Histogram: 1 0 0 0 0 0 0 0 0 0

Total # of neighbors = 12565
Ave neighs/atom = 87.256944
Neighbor list builds = 0
Dangerous builds = 0

Total wall time: 0:00:00
