ITEM: TIMESTEP
110091
ITEM: NUMBER OF ATOMS
144
ITEM: BOX BOUNDS xy xz yz pp pp pp
0.0000000000000000e+00 3.5961571286235539e+01 4.9602167291359365e+00
0.0000000000000000e+00 4.6029234426340381e+01 2.1080921098827730e+01
0.0000000000000000e+00 1.9734580741297954e+01 3.4937852636860775e+01
ITEM: ATOMS id type x y z c_peatom
70 2 0 0 0 -3.28861
82 2 1.65341 3.69713 0 -3.30461
69 2 4.96022 3.93105e-16 0 -3.3014
81 2 6.61362 3.69713 0 -3.28684
80 2 4.13351 4.80627 0.905608 -3.29765
86 1 4.03412 7.20566 2.52105 -3.27101
88 1 6.47995 8.31143 3.54372 -3.29046
93 1 6.60848 6.02722 1.69445 -3.33001
94 2 5.78692 8.50339 0.905608 -3.30917
92 1 9.06669 7.17155 2.58811 -3.23069
76 1 11.5457 5.9805 1.58003 -3.24431
89 1 11.3598 8.23328 3.3594 -3.16814
91 2 9.09373 4.80627 0.905608 -3.30136
96 2 13.2272 7.39425 0 -3.28817
104 2 10.7471 8.50339 0.905608 -3.27772
98 1 8.66112 9.55786 4.15749 -3.07768
68 2 7.44033 12.2005 0.905608 -3.2826
100 1 5.85429 10.7565 2.4762 -3.25083
102 1 8.47918 11.9426 3.27503 -3.21818
106 1 8.25992 9.63494 1.61401 -3.28734
77 2 12.4005 12.2005 0.905608 -3.3014
79 1 9.99598 13.3015 1.57599 -3.26494
90 1 13.2239 9.65443 1.61277 -3.27461
105 1 10.8117 10.7419 2.47015 -3.25044
108 1 11.0869 13.0359 4.0411 -3.2627
103 1 13.4479 11.9406 3.27951 -3.21571
67 1 14.9309 13.3839 1.63803 -3.29589
87 1 13.6036 9.50821 4.16545 -3.23755
101 1 16.0348 13.1418 4.06017 -3.23208
72 1 7.56214 14.3948 2.39085 -3.15754
109 1 8.71732 14.2139 4.89746 -3.28135
74 1 10.1967 15.442 3.15415 -3.12022
78 1 12.5617 14.5195 2.49108 -3.23769
85 1 10.1949 17.4607 4.62749 -2.9562
84 1 12.6956 16.8572 4.18698 -3.13906
73 1 17.6762 16.4478 3.79826 -3.00976
75 1 15.0687 15.7261 3.33872 -3.21231
97 1 13.6586 14.2504 4.89037 -3.23794
2 1 8.24659 11.8025 5.81245 -3.22841
83 1 10.9275 10.5928 4.96643 -3.17684
9 1 10.6278 12.8974 6.58048 -3.22949
1 1 13.2114 11.819 5.81291 -3.23571
99 1 15.8568 10.72 4.99809 -3.20731
3 1 15.6082 12.9951 6.57008 -3.25935
5 1 11.2567 15.296 5.70054 -3.24866
6 1 13.0348 14.0837 7.39656 -3.25935
7 1 10.5493 15.2113 8.24199 -3.28806
8 2 13.0206 16.3598 8.96168 -3.30715
17 1 11.4338 17.6901 7.21368 -3.32229
10 2 17.9808 16.3598 8.96168 -3.26668
13 1 15.494 15.2144 8.24116 -3.29822
14 1 16.2569 15.5237 5.72738 -3.26605
15 1 13.8605 16.5581 6.46355 -3.19687
16 1 16.274 17.7557 7.41725 -3.22888
4 1 17.9929 14.0816 7.39418 -3.25711
20 1 18.7867 16.5277 6.55775 -3.23632
22 1 12.4055 20.2568 6.48081 -3.2149
44 1 17.5296 18.3503 5.28995 -2.96854
71 1 14.7607 18.8926 5.54284 -3.22103
31 2 16.3274 20.0569 8.96168 -3.27841
34 1 13.8566 18.8738 8.20361 -3.29304
35 1 17.2807 20.4156 6.64428 -3.16224
36 1 14.7297 21.3715 7.31275 -3.28016
42 1 17.162 22.616 8.26198 -3.28052
18 1 18.7797 18.86 8.24255 -3.30149
19 2 21.2876 20.0569 8.96168 -3.32231
21 1 19.8843 19.4623 6.03329 -3.01468
41 1 19.7163 21.5595 7.44323 -3.20762
46 1 22.151 22.58 8.22157 -3.30494
53 2 14.674 23.754 8.96168 -3.30315
43 2 19.6342 23.754 8.96168 -3.27609
32 2 13.8473 21.1661 9.86729 -3.30725
33 2 16.3274 22.2752 10.7729 -3.29505
37 2 21.2876 22.2752 10.7729 -3.27669
40 2 18.8075 21.1661 9.86729 -3.28736
49 1 16.2342 24.5904 12.3785 -3.26869
54 2 14.674 25.9723 10.7729 -3.30389
58 1 17.1465 27.1851 11.5827 -3.33601
60 2 17.1541 24.8632 9.86729 -3.28704
52 1 13.8385 23.4665 11.5241 -3.30353
117 1 16.0351 26.9084 14.0648 -3.18374
38 1 18.7745 23.3884 11.4716 -3.28391
39 1 21.2292 24.5155 12.3101 -3.22149
45 2 22.1143 24.8632 9.86729 -3.29652
55 1 21.0296 26.6764 13.7531 -3.10286
56 1 18.6155 25.5568 13.0725 -3.16532
57 2 19.6342 25.9723 10.7729 -3.29853
62 1 22.1241 27.1241 11.4384 -3.27991
51 1 18.4652 27.6492 14.4544 -2.96465
50 1 23.6096 25.8465 13.2765 -3.27513
66 1 17.0617 29.4956 13.3739 -3.3191
25 1 17.9579 31.9465 12.3433 -3.26502
11 2 20.4609 28.5603 9.86729 -3.26952
23 2 17.9808 29.6694 10.7729 -3.31603
30 1 20.4704 30.8285 11.4806 -3.29191
59 1 19.6621 28.3424 12.3396 -3.25221
61 1 22.1502 29.382 13.1517 -3.21139
65 1 19.6927 30.6318 13.9803 -3.27861
115 1 22.2402 31.6465 14.8259 -3.23778
12 2 22.941 29.6694 10.7729 -3.2681
24 1 25.4246 30.8096 11.5151 -3.30291
26 2 25.4211 28.5603 9.86729 -3.32507
27 1 22.922 31.928 12.3439 -3.26756
63 1 24.561 28.3102 12.4123 -3.26862
64 1 24.6273 30.6636 14.0543 -3.17154
129 1 27.2453 31.8648 14.8613 -3.2524
28 1 20.3714 33.075 13.1604 -3.24607
140 1 20.1368 35.364 14.7434 -3.19894
29 1 22.7595 34.1567 13.9308 -3.2641
48 1 25.3408 33.085 13.1587 -3.25166
127 1 25.0888 35.345 14.7471 -3.22326
47 1 27.7389 34.2758 13.932 -3.22149
107 1 20.9007 28.6778 15.2011 -2.97816
114 1 20.8055 30.648 16.6446 -3.01168
116 1 18.3574 29.6114 15.9103 -2.98963
111 1 23.7225 28.4812 15.134 -3.19159
112 1 23.451 31.4301 17.1971 -3.21648
113 1 25.7917 30.2991 16.3493 -3.17018
120 1 28.3273 31.6688 17.3581 -3.14219
110 1 21.0321 32.7281 18.1759 -3.24363
128 1 19.88 32.9638 15.6808 -3.25861
126 1 22.5033 34.0246 16.4532 -3.21276
139 1 22.4568 36.4417 15.5481 -3.22466
118 2 23.561 33.8287 18.829 -3.2986
119 1 22.7207 36.3923 18.1121 -3.28714
122 1 25.9454 32.6568 18.1012 -3.28969
123 1 24.8675 32.9247 15.6897 -3.22674
124 1 25.1179 35.2574 17.2647 -3.22063
135 1 27.3093 36.651 15.5896 -3.18764
121 2 28.5212 33.8287 18.829 -3.28026
125 1 27.445 34.1467 16.4536 -3.24848
132 1 30.1204 35.232 17.2781 -3.21103
134 1 27.6868 36.3862 18.1196 -3.29442
130 2 25.2144 37.5258 18.829 -3.273
131 1 24.4395 40.0021 18.1038 -3.28022
138 1 24.7022 37.7038 16.357 -3.22756
141 2 26.8678 41.223 18.829 -3.24948
136 1 27.0576 38.9346 17.2406 -3.21664
133 2 30.1747 37.5258 18.829 -3.2974
137 1 29.6356 37.6038 16.3348 -3.0902
144 1 29.3778 40.0121 18.0271 -3.26398
142 1 31.904 38.8388 17.0384 -3.32072
143 2 31.8281 41.223 18.829 -3.30383
95 2 29.3479 42.3321 19.7346 -3.3212
