LAMMPS (29 Aug 2024 - Update 2)
#---------------------------------------------------------------------------------------------------
# Initilise important features of simulation
#---------------------------------------------------------------------------------------------------
units 		metal	# Use metals units (Ang, ps, eV, bar, etc.)
dimension 	3		# Run the simulation in three dimensions
boundary 	p p p	# Use periodic boundaries in all three dimensions
atom_style 	atomic	#
#box tilt large		# Allow larger than normal tilt factors

variable T_start equal 600
variable T_end equal 200
variable tstep equal 0.002
timestep ${tstep}
timestep 0.002

read_data   lammps.txt	# Read in atom coordinates from a file
Reading data file ...
  triclinic box = (0 0 0) to (9.9204335 11.091382 19.734581) with tilt (4.9602167 14.88065 40.483544)
WARNING: Triclinic box skew is large. LAMMPS will run inefficiently. (src/domain.cpp:221)
  1 by 1 by 1 MPI processor grid
  reading atoms ...
  144 atoms
  read_data CPU = 0.001 seconds

#---------------------------------------------------------------------------------------------------
# Define how the forces between the atoms will be modelled
#---------------------------------------------------------------------------------------------------
pair_style eam/alloy
pair_coeff * * Zope-Ti-Al-2003.eam.alloy.txt Al Al

#---------------------------------------------------------------------------------------------------
# Set behaviour of simulation
#---------------------------------------------------------------------------------------------------
group g_fixed type 2
36 atoms in group g_fixed
group g_other type 1
108 atoms in group g_other
fix f_freeze g_fixed setforce 0.0 0.0 0.0 	# Hold atoms of type 2 fixed in place
#fix f_constrain g_other setforce 0.0 0.0 NULL 	# All atoms of type 1 to move only in z direction

#---------------------------------------------------------------------------------------------------
# Specify what information to write out
#---------------------------------------------------------------------------------------------------
thermo_style custom step atoms temp pe ke etotal fmax
thermo_modify format 6 %20.10f
thermo 1000

#compute statom all stress/atom NULL
compute peatom all pe/atom
dump 1 all custom 100000 dump.* id type x y z c_peatom
dump_modify 1 first yes


#---------------------------------------------------------------------------------------------------
# Initial relaxation
#---------------------------------------------------------------------------------------------------
velocity all set 0.0 0.0 0.0

min_style 	cg
min_modify dmax 0.1
minimize 	0.0 1.0e-6 10000 100000
Neighbor list info ...
  update: every = 1 steps, delay = 0 steps, check = yes
  max neighbors/atom: 2000, page size: 100000
  master list distance cutoff = 8.724884
  ghost atom cutoff = 8.724884
  binsize = 4.362442, bins = 7 12 5
  1 neighbor lists, perpetual/occasional/extra = 1 0 0
  (1) pair eam/alloy, perpetual
      attributes: half, newton on
      pair build: half/bin/atomonly/newton/tri
      stencil: half/bin/3d/tri
      bin: standard
Per MPI rank memory allocation (min/avg/max) = 4.721 | 4.721 | 4.721 Mbytes
   Step        Atoms         Temp          PotEng         KinEng         TotEng          Fmax     
         0         144   0             -397.2136       0                  -397.2135966370  16.260419    
        79         144   0             -465.97815      0                  -465.9781531078  1.2413826e-07
Loop time of 0.0165111 on 1 procs for 79 steps with 144 atoms

99.1% CPU use with 1 MPI tasks x no OpenMP threads

Minimization stats:
  Stopping criterion = force tolerance
  Energy initial, next-to-last, final = 
     -397.213596636981   -465.97815310785  -465.978153107849
  Force two-norm initial, final = 57.726897 6.1329282e-07
  Force max component initial, final = 16.260419 1.2413826e-07
  Final line search alpha, max atom move = 1 1.2413826e-07
  Iterations, force evaluations = 79 148

MPI task timing breakdown:
Section |  min time  |  avg time  |  max time  |%varavg| %total
---------------------------------------------------------------
Pair    | 0.014445   | 0.014445   | 0.014445   |   0.0 | 87.49
Neigh   | 0.00052725 | 0.00052725 | 0.00052725 |   0.0 |  3.19
Comm    | 0.00090991 | 0.00090991 | 0.00090991 |   0.0 |  5.51
Output  | 0          | 0          | 0          |   0.0 |  0.00
Modify  | 2.0039e-05 | 2.0039e-05 | 2.0039e-05 |   0.0 |  0.12
Other   |            | 0.0006086  |            |       |  3.69

Nlocal:            144 ave         144 max         144 min
Histogram: 1 0 0 0 0 0 0 0 0 0
Nghost:           3520 ave        3520 max        3520 min
Histogram: 1 0 0 0 0 0 0 0 0 0
Neighs:          13134 ave       13134 max       13134 min
Histogram: 1 0 0 0 0 0 0 0 0 0

Total # of neighbors = 13134
Ave neighs/atom = 91.208333
Neighbor list builds = 1
Dangerous builds = 0
#---------------------------------------------------------------------------------------------------
# Anneal boundary structures
#---------------------------------------------------------------------------------------------------
reset_timestep 100000
fix md g_other nvt temp ${T_start} ${T_end} $(100.0*v_tstep)
fix md g_other nvt temp 600 ${T_end} $(100.0*v_tstep)
fix md g_other nvt temp 600 200 $(100.0*v_tstep)
fix md g_other nvt temp 600 200 0.2000000000000000111

velocity all create ${T_start} 4928459 rot yes mom yes dist gaussian
velocity all create 600 4928459 rot yes mom yes dist gaussian
run 10000
Per MPI rank memory allocation (min/avg/max) = 4.978 | 4.978 | 4.978 Mbytes
   Step        Atoms         Temp          PotEng         KinEng         TotEng          Fmax     
    100000         144   600           -465.97815      11.09052           -454.8876326668  1.2413825e-07
    101000         144   593.44121     -459.0242       10.969286          -448.0549115745  1.443122     
    102000         144   603.65026     -458.27286      11.157993          -447.1148636100  1.3355538    
    103000         144   532.2926      -459.76328      9.8390032          -449.9242788670  1.5053041    
    104000         144   486.41621     -460.12615      8.9910148          -451.1351337628  1.6001438    
    105000         144   485.87093     -461.44738      8.9809357          -452.4664487610  1.0033903    
    106000         144   425.59007     -461.31976      7.8666923          -453.4530705223  1.4576098    
    107000         144   443.21335     -462.17185      8.1924445          -453.9794090605  1.22623      
    108000         144   386.82082     -463.0635       7.1500737          -455.9134249706  0.95020228   
    109000         144   364.85574     -463.66237      6.7440668          -456.9183002897  0.89570078   
    110000         144   331.5036      -464.29222      6.1275791          -458.1646408714  1.051791     
Loop time of 0.983395 on 1 procs for 10000 steps with 144 atoms

Performance: 1757.178 ns/day, 0.014 hours/ns, 10168.857 timesteps/s, 1.464 Matom-step/s
99.8% CPU use with 1 MPI tasks x no OpenMP threads

MPI task timing breakdown:
Section |  min time  |  avg time  |  max time  |%varavg| %total
---------------------------------------------------------------
Pair    | 0.8891     | 0.8891     | 0.8891     |   0.0 | 90.41
Neigh   | 0.0099433  | 0.0099433  | 0.0099433  |   0.0 |  1.01
Comm    | 0.060559   | 0.060559   | 0.060559   |   0.0 |  6.16
Output  | 8.5917e-05 | 8.5917e-05 | 8.5917e-05 |   0.0 |  0.01
Modify  | 0.010924   | 0.010924   | 0.010924   |   0.0 |  1.11
Other   |            | 0.01278    |            |       |  1.30

Nlocal:            144 ave         144 max         144 min
Histogram: 1 0 0 0 0 0 0 0 0 0
Nghost:           3528 ave        3528 max        3528 min
Histogram: 1 0 0 0 0 0 0 0 0 0
Neighs:          13079 ave       13079 max       13079 min
Histogram: 1 0 0 0 0 0 0 0 0 0

Total # of neighbors = 13079
Ave neighs/atom = 90.826389
Neighbor list builds = 19
Dangerous builds = 0
unfix md

#---------------------------------------------------------------------------------------------------
# Final relaxation
#---------------------------------------------------------------------------------------------------
velocity all set 0.0 0.0 0.0

min_style 	cg
min_modify dmax 0.1
minimize 	0.0 1.0e-6 10000 100000
Per MPI rank memory allocation (min/avg/max) = 6.103 | 6.103 | 6.103 Mbytes
   Step        Atoms         Temp          PotEng         KinEng         TotEng          Fmax     
    110000         144   0             -464.29222      0                  -464.2922199459  1.051791     
    110099         144   0             -466.89715      0                  -466.8971531719  1.7597271e-07
Loop time of 0.0215174 on 1 procs for 99 steps with 144 atoms

98.7% CPU use with 1 MPI tasks x no OpenMP threads

Minimization stats:
  Stopping criterion = force tolerance
  Energy initial, next-to-last, final = 
      -464.29221994586  -466.897153171859   -466.89715317186
  Force two-norm initial, final = 5.4521552 8.7681941e-07
  Force max component initial, final = 1.051791 1.7597271e-07
  Final line search alpha, max atom move = 1 1.7597271e-07
  Iterations, force evaluations = 99 196

MPI task timing breakdown:
Section |  min time  |  avg time  |  max time  |%varavg| %total
---------------------------------------------------------------
Pair    | 0.019507   | 0.019507   | 0.019507   |   0.0 | 90.66
Neigh   | 0          | 0          | 0          |   0.0 |  0.00
Comm    | 0.0011677  | 0.0011677  | 0.0011677  |   0.0 |  5.43
Output  | 0          | 0          | 0          |   0.0 |  0.00
Modify  | 2.7665e-05 | 2.7665e-05 | 2.7665e-05 |   0.0 |  0.13
Other   |            | 0.0008151  |            |       |  3.79

Nlocal:            144 ave         144 max         144 min
Histogram: 1 0 0 0 0 0 0 0 0 0
Nghost:           3542 ave        3542 max        3542 min
Histogram: 1 0 0 0 0 0 0 0 0 0
Neighs:          13125 ave       13125 max       13125 min
Histogram: 1 0 0 0 0 0 0 0 0 0

Total # of neighbors = 13125
Ave neighs/atom = 91.145833
Neighbor list builds = 0
Dangerous builds = 0

Total wall time: 0:00:01
