ITEM: TIMESTEP
100000
ITEM: NUMBER OF ATOMS
144
ITEM: BOX BOUNDS xy xz yz pp pp pp
0.0000000000000000e+00 3.4101490012809563e+01 4.9602167291359365e+00
0.0000000000000000e+00 4.4642811702655436e+01 1.9220839825401757e+01
0.0000000000000000e+00 1.9734580741297954e+01 3.3551429913175824e+01
ITEM: ATOMS id type x y z c_peatom
70 2 0 0 0 -3.30922
82 2 1.65341 3.69713 0 -3.30535
69 2 4.96022 0 0 -3.30922
81 2 6.61362 3.69713 0 -3.30535
80 2 4.13351 4.80627 0.905608 -3.30698
86 1 4.10375 7.07587 2.55586 -3.32097
88 1 6.59172 8.1093 3.39004 -3.29864
91 2 9.09373 4.80627 0.905608 -3.30698
92 1 9.06396 7.07587 2.55586 -3.32097
93 1 6.59497 5.92874 1.64482 -3.29817
94 2 5.78692 8.50339 0.905608 -3.2993
95 2 8.26703 7.39425 0 -3.30535
76 1 11.5552 5.92874 1.64482 -3.29817
89 1 11.5519 8.1093 3.39004 -3.29864
96 2 13.2272 7.39425 0 -3.30535
104 2 10.7471 8.50339 0.905608 -3.2993
68 2 7.44033 12.2005 0.905608 -3.31819
98 1 9.01988 9.33158 4.29836 -3.3114
100 1 5.76955 10.674 2.50468 -3.27059
102 1 8.31818 11.7735 3.35781 -3.2798
106 1 8.24612 9.60454 1.66902 -3.31808
77 2 12.4005 12.2005 0.905608 -3.31819
79 1 9.9211 13.2703 1.63505 -3.29189
87 1 13.9801 9.33158 4.29836 -3.3114
90 1 13.2063 9.60454 1.66902 -3.31808
103 1 13.2784 11.7735 3.35781 -3.2798
105 1 10.7298 10.674 2.50468 -3.27059
108 1 10.8423 12.8442 4.11332 -3.29277
67 1 14.8813 13.2703 1.63505 -3.29189
101 1 15.8025 12.8442 4.11332 -3.29277
72 1 7.47286 14.3594 2.47582 -3.26609
74 1 10.0164 15.4221 3.25587 -3.22295
78 1 12.4331 14.3594 2.47582 -3.26609
84 1 12.5171 16.5022 4.04623 -3.2541
85 1 10.1053 17.4946 4.8559 -3.20381
73 1 17.4773 16.5022 4.04623 -3.2541
75 1 14.9766 15.4221 3.25587 -3.22295
71 1 15.0655 17.4946 4.8559 -3.20381
2 1 7.75589 11.7885 5.93515 -2.77495
99 1 6.42105 10.2004 5.04225 -3.00225
9 1 10.0385 12.4459 6.58409 -3.19528
1 1 12.7161 11.7885 5.93515 -2.77495
83 1 11.3813 10.2004 5.04225 -3.00225
3 1 14.9987 12.4459 6.58409 -3.19528
109 1 8.40934 14.0462 4.93768 -3.25778
7 1 9.70846 14.5819 8.26106 -3.27613
97 1 13.3696 14.0462 4.93768 -3.25778
5 1 10.835 15.0158 5.77743 -3.30946
6 1 12.293 13.6304 7.49325 -3.10313
8 2 12.0905 15.6666 8.96168 -3.22676
15 1 13.2299 16.1299 6.59595 -3.27678
17 1 10.6324 17.1362 7.40776 -3.18908
13 1 14.6687 14.5819 8.26106 -3.27613
4 1 17.2533 13.6304 7.49325 -3.10313
10 2 17.0507 15.6666 8.96168 -3.22676
14 1 15.7952 15.0158 5.77743 -3.30946
16 1 15.5927 17.1362 7.40776 -3.18908
20 1 18.1901 16.1299 6.59595 -3.27678
22 1 10.5044 19.5129 6.47545 -2.9389
34 1 12.9818 18.3102 8.22881 -3.29278
35 1 12.7536 18.6074 5.6678 -3.19121
36 1 13.5379 20.8559 7.20584 -3.19263
18 1 17.942 18.3102 8.22881 -3.29278
21 1 17.7138 18.6074 5.6678 -3.19121
31 2 15.3973 19.3637 8.96168 -3.24747
41 1 18.4981 20.8559 7.20584 -3.19263
42 1 16.1927 21.8617 8.12252 -3.31418
44 1 15.4646 19.5129 6.47545 -2.9389
19 2 20.3576 19.3637 8.96168 -3.24747
46 1 21.1529 21.8617 8.12252 -3.31418
53 2 13.7439 23.0608 8.96168 -3.34433
43 2 18.7042 23.0608 8.96168 -3.34433
32 2 12.9172 20.4728 9.86729 -3.30513
33 2 15.3973 21.582 10.7729 -3.34433
40 2 17.8774 20.4728 9.86729 -3.30513
37 2 20.3576 21.582 10.7729 -3.34433
52 1 12.9486 22.7812 11.6121 -3.31418
54 2 13.7439 25.2791 10.7729 -3.24747
38 1 17.9088 22.7812 11.6121 -3.31418
49 1 15.6034 23.7869 12.5287 -3.19263
51 1 16.3877 26.0355 14.0668 -3.19121
56 1 18.6369 25.1299 13.2591 -2.9389
57 2 18.7042 25.2791 10.7729 -3.24747
58 1 16.1595 26.3326 11.5058 -3.29278
60 2 16.224 24.17 9.86729 -3.30513
39 1 20.5636 23.7869 12.5287 -3.19263
45 2 21.1843 24.17 9.86729 -3.30513
50 1 23.5971 25.1299 13.2591 -2.9389
55 1 21.3479 26.0355 14.0668 -3.19121
62 1 21.1197 26.3326 11.5058 -3.29278
26 2 14.5706 27.8671 9.86729 -3.32246
23 2 17.0507 28.9762 10.7729 -3.22676
25 1 16.8482 31.0125 12.2413 -3.10313
59 1 18.5088 27.5066 12.3268 -3.18908
65 1 18.3063 29.627 13.9571 -3.30946
66 1 15.9114 28.5129 13.1386 -3.27678
30 1 19.4328 30.0609 11.4735 -3.27613
11 2 19.5309 27.8671 9.86729 -3.32246
12 2 22.011 28.9762 10.7729 -3.22676
27 1 21.8084 31.0125 12.2413 -3.10313
61 1 20.8716 28.5129 13.1386 -3.27678
63 1 23.469 27.5066 12.3268 -3.18908
64 1 23.2665 29.627 13.9571 -3.30946
115 1 20.7319 30.5966 14.7969 -3.25778
24 1 24.393 30.0609 11.4735 -3.27613
129 1 25.6921 30.5966 14.7969 -3.25778
28 1 19.1028 32.1969 13.1505 -3.19528
29 1 21.3854 32.8543 13.7994 -2.77495
127 1 22.7202 34.4424 14.6923 -3.00225
48 1 24.063 32.1969 13.1505 -3.19528
47 1 26.3456 32.8543 13.7994 -2.77495
140 1 27.6804 34.4424 14.6923 -3.00225
107 1 19.036 27.1482 14.8787 -3.20381
114 1 19.1249 29.2207 16.4787 -3.22295
116 1 16.6242 28.1406 15.6884 -3.2541
117 1 23.9962 27.1482 14.8787 -3.20381
111 1 21.5844 28.1406 15.6884 -3.2541
112 1 21.6684 30.2834 17.2588 -3.26609
113 1 24.0851 29.2207 16.4787 -3.22295
120 1 26.6286 30.2834 17.2588 -3.26609
110 1 19.2202 31.3725 18.0995 -3.29189
128 1 18.2989 31.7986 15.6213 -3.29277
118 2 21.7009 32.4423 18.829 -3.31819
119 1 20.8951 35.0383 18.0656 -3.31808
122 1 24.1804 31.3725 18.0995 -3.29189
123 1 23.2592 31.7986 15.6213 -3.29277
124 1 23.3717 33.9688 17.2299 -3.27059
126 1 20.8231 32.8693 16.3768 -3.2798
139 1 20.1214 35.3112 15.4362 -3.3114
121 2 26.6612 32.4423 18.829 -3.31819
125 1 25.7833 32.8693 16.3768 -3.2798
132 1 28.3319 33.9688 17.2299 -3.27059
134 1 25.8554 35.0383 18.0656 -3.31808
135 1 25.0816 35.3112 15.4362 -3.3114
130 2 23.3544 36.1394 18.829 -3.2993
131 1 22.5463 38.7141 18.0898 -3.29817
138 1 22.5495 36.5335 16.3445 -3.29864
133 2 28.3146 36.1394 18.829 -3.2993
136 1 25.0375 37.5669 17.1787 -3.32097
137 1 27.5098 36.5335 16.3445 -3.29864
141 2 25.0078 39.8365 18.829 -3.30698
144 1 27.5065 38.7141 18.0898 -3.29817
142 1 29.9977 37.5669 17.1787 -3.32097
143 2 29.968 39.8365 18.829 -3.30698
