ITEM: TIMESTEP
0
ITEM: NUMBER OF ATOMS
144
ITEM: BOX BOUNDS xy xz yz pp pp pp
0.0000000000000000e+00 2.4801083645679689e+01 4.9602167291359365e+00
0.0000000000000000e+00 5.1574925321080187e+01 9.9204334582718801e+00
0.0000000000000000e+00 2.0734580741297954e+01 4.0483543531600581e+01
ITEM: ATOMS id type x y z c_peatom
69 2 4.96022 4.33534e-16 0 -3.3392
70 2 0 0 0 -3.3392
81 2 6.61362 3.69713 0 -3.34297
82 2 11.5738 3.69713 0 -3.34297
80 2 4.13351 4.80627 0.905608 -3.34869
86 1 4.13351 7.02454 2.71682 -3.35958
87 1 4.13351 9.24282 4.52804 -3.05589
88 1 6.61362 8.13368 3.62243 -3.31153
91 2 9.09373 4.80627 0.905608 -3.34869
92 1 9.09373 7.02454 2.71682 -3.35958
93 1 6.61362 5.9154 1.81122 -3.3641
94 2 5.78692 8.50339 0.905608 -3.35418
95 2 8.26703 7.39425 0 -3.34297
98 1 9.09373 9.24282 4.52804 -3.05589
76 1 11.5738 5.9154 1.81122 -3.3641
89 1 11.5738 8.13368 3.62243 -3.31153
96 2 13.2272 7.39425 0 -3.34297
104 2 10.7471 8.50339 0.905608 -3.35418
68 2 7.44033 12.2005 0.905608 -3.34415
79 1 9.92043 13.3097 1.81122 -3.33558
100 1 5.78692 10.7217 2.71682 -3.35726
101 1 5.78692 12.9399 4.52804 -3.3299
102 1 8.26703 11.8308 3.62243 -3.30712
106 1 8.26703 9.61253 1.81122 -3.34869
109 1 8.26703 14.0491 5.18365 -0.713417
67 1 14.8807 13.3097 1.81122 -3.33558
77 2 12.4005 12.2005 0.905608 -3.34415
90 1 13.2272 9.61253 1.81122 -3.34869
97 1 13.2272 14.0491 5.18365 -0.713417
103 1 13.2272 11.8308 3.62243 -3.30712
105 1 10.7471 10.7217 2.71682 -3.35726
108 1 10.7471 12.9399 4.52804 -3.3299
72 1 7.44033 14.4188 2.71682 -3.36401
73 1 7.44033 16.6371 4.52804 -3.23716
74 1 9.92043 15.5279 3.62243 -3.3867
75 1 14.8807 15.5279 3.62243 -3.3867
78 1 12.4005 14.4188 2.71682 -3.36401
84 1 12.4005 16.6371 4.52804 -3.23716
99 1 6.61362 10.352 5.18365 -3.09964
83 1 11.5738 10.352 5.18365 -3.09964
1 1 7.44033 14.6961 5.83925 -0.62054
3 1 9.92043 15.8052 6.74486 -3.33593
6 1 7.44033 16.9144 7.65047 -3.38668
7 1 4.96022 18.0235 8.55608 -3.36569
9 1 4.96022 15.8052 6.74486 -3.33593
13 1 9.92043 18.0235 8.55608 -3.36569
85 1 9.92043 17.7462 5.18365 -0.611285
2 1 12.4005 14.6961 5.83925 -0.62054
4 1 12.4005 16.9144 7.65047 -3.38668
14 1 10.7471 18.3932 5.83925 -0.716068
71 1 14.8807 17.7462 5.18365 -0.611285
5 1 15.7074 18.3932 5.83925 -0.716068
8 2 7.44033 19.1326 9.46168 -3.31898
15 1 8.26703 19.5023 6.74486 -3.34749
34 1 8.26703 21.7206 8.55608 -3.359
35 1 9.09373 22.0903 5.83925 -2.99941
10 2 12.4005 19.1326 9.46168 -3.31898
16 1 10.7471 20.6115 7.65047 -3.39343
18 1 13.2272 21.7206 8.55608 -3.359
20 1 13.2272 19.5023 6.74486 -3.34749
21 1 14.0539 22.0903 5.83925 -2.99941
31 2 10.7471 22.8298 9.46168 -3.34164
44 1 11.5738 23.1995 6.74486 -3.18328
17 1 15.7074 20.6115 7.65047 -3.39343
19 2 15.7074 22.8298 9.46168 -3.34164
22 1 16.5341 23.1995 6.74486 -3.18328
36 1 9.09373 24.3086 7.65047 -3.39071
53 2 9.09373 26.5269 9.46168 -3.34959
41 1 14.0539 24.3086 7.65047 -3.39071
42 1 11.5738 25.4177 8.55608 -3.36279
43 2 14.0539 26.5269 9.46168 -3.34959
46 1 16.5341 25.4177 8.55608 -3.36279
32 2 8.26703 23.9389 10.3673 -3.33943
52 1 8.26703 26.1572 12.1785 -3.36279
33 2 10.7471 25.048 11.2729 -3.34959
38 1 13.2272 26.1572 12.1785 -3.36279
40 2 13.2272 23.9389 10.3673 -3.33943
49 1 10.7471 27.2663 13.0841 -3.39071
60 2 11.5738 27.636 10.3673 -3.33943
37 2 15.7074 25.048 11.2729 -3.34959
39 1 15.7074 27.2663 13.0841 -3.39071
45 2 16.5341 27.636 10.3673 -3.33943
50 1 8.26703 28.3755 13.9897 -3.18328
54 2 9.09373 28.7452 11.2729 -3.34164
63 1 9.09373 30.9634 13.0841 -3.39343
11 2 14.8807 31.3332 10.3673 -3.33112
23 2 12.4005 32.4423 11.2729 -3.31898
26 2 9.92043 31.3332 10.3673 -3.33112
51 1 10.7471 29.4846 14.8953 -2.99941
56 1 13.2272 28.3755 13.9897 -3.18328
57 2 14.0539 28.7452 11.2729 -3.34164
58 1 11.5738 29.8543 12.1785 -3.359
59 1 14.0539 30.9634 13.0841 -3.39343
66 1 11.5738 32.0726 13.9897 -3.34749
12 2 17.3608 32.4423 11.2729 -3.31898
55 1 15.7074 29.4846 14.8953 -2.99941
61 1 16.5341 32.0726 13.9897 -3.34749
62 1 16.5341 29.8543 12.1785 -3.359
64 1 9.09373 33.1817 14.8953 -0.716068
25 1 12.4005 34.6606 13.0841 -3.38668
28 1 14.8807 35.7697 13.9897 -3.33593
30 1 14.8807 33.5514 12.1785 -3.36569
47 1 12.4005 36.8788 14.8953 -0.62054
65 1 14.0539 33.1817 14.8953 -0.716068
24 1 19.8409 33.5514 12.1785 -3.36569
27 1 17.3608 34.6606 13.0841 -3.38668
29 1 17.3608 36.8788 14.8953 -0.62054
48 1 19.8409 35.7697 13.9897 -3.33593
107 1 9.92043 33.8287 15.5509 -0.611285
114 1 9.92043 36.047 17.1122 -3.3867
111 1 12.4005 34.9379 16.2065 -3.23716
112 1 12.4005 37.1561 18.0178 -3.36401
113 1 14.8807 36.047 17.1122 -3.3867
117 1 14.8807 33.8287 15.5509 -0.611285
116 1 17.3608 34.9379 16.2065 -3.23716
120 1 17.3608 37.1561 18.0178 -3.36401
110 1 9.92043 38.2653 18.9234 -3.33558
115 1 11.5738 37.5258 15.5509 -0.713417
118 2 12.4005 39.3744 19.829 -3.34415
119 1 11.5738 41.9624 18.9234 -3.34869
122 1 14.8807 38.2653 18.9234 -3.33558
123 1 14.0539 38.635 16.2065 -3.3299
124 1 14.0539 40.8533 18.0178 -3.35726
126 1 11.5738 39.7441 17.1122 -3.30712
127 1 13.2272 41.223 15.5509 -3.09964
121 2 17.3608 39.3744 19.829 -3.34415
125 1 16.5341 39.7441 17.1122 -3.30712
128 1 19.0142 38.635 16.2065 -3.3299
129 1 16.5341 37.5258 15.5509 -0.713417
132 1 19.0142 40.8533 18.0178 -3.35726
134 1 16.5341 41.9624 18.9234 -3.34869
140 1 18.1875 41.223 15.5509 -3.09964
130 2 14.0539 43.0715 19.829 -3.35418
131 1 13.2272 45.6595 18.9234 -3.3641
138 1 13.2272 43.4412 17.1122 -3.31153
133 2 19.0142 43.0715 19.829 -3.35418
135 1 15.7074 42.3321 16.2065 -3.05589
136 1 15.7074 44.5504 18.0178 -3.35958
137 1 18.1875 43.4412 17.1122 -3.31153
141 2 15.7074 46.7687 19.829 -3.34869
144 1 18.1875 45.6595 18.9234 -3.3641
139 1 20.6676 42.3321 16.2065 -3.05589
142 1 20.6676 44.5504 18.0178 -3.35958
143 2 20.6676 46.7687 19.829 -3.34869
