#Lammps coordinate file for CSL - Axis: [1 1 1]  Angle: (1, 3) -> 59.99999999999999  Plane indices: [0 1 1]  z-position: [5.6836451853244885 17.050935555973464]  Repeats: 1 1 (3, 3) (black, white)  Fixed: 2.228  Boundary equiv: True
144 atoms

2 atom types

0.0 9.920433458271871 xlo xhi
0.0 11.091381789479609 ylo yhi
0.0 22.734580741297954 zlo zhi
4.9602167291359365 4.960216729135942 34.937852636860775 xy xz yz

Atoms

1 1 4.960216729135937 11.923235423690581 6.839252716211904
2 1 9.92043345827187 11.923235423690581 6.839252716211904
3 1 7.440325093703905 13.032373602638543 7.74486024709932
4 1 9.920433458271871 14.141511781586505 8.650467777986734
5 1 13.227244611029162 15.620362686850452 6.839252716211904
6 1 4.9602167291359365 14.141511781586505 8.650467777986734
7 1 2.48010836456797 15.250649960534467 9.55607530887415
8 2 4.960216729135937 16.359788139482426 10.461682839761563
9 1 2.48010836456797 13.032373602638543 7.744860247099319
10 2 9.920433458271871 16.359788139482426 10.461682839761563
11 2 7.440325093703906 17.468926318430388 11.367290370648979
12 2 9.920433458271873 18.57806449737835 12.272897901536393
13 1 7.440325093703905 15.250649960534467 9.55607530887415
14 1 8.267027881893226 15.620362686850452 6.839252716211904
15 1 5.78691951732526 16.729500865798414 7.744860247099319
16 1 8.267027881893227 17.838639044746376 8.650467777986734
17 1 13.227244611029162 17.838639044746373 8.650467777986734
18 1 10.747136246461196 18.947777223694334 9.55607530887415
19 2 13.227244611029164 20.056915402642296 10.461682839761563
20 1 10.747136246461194 16.729500865798414 7.74486024709932
21 1 11.573839034650518 19.317489950010323 6.839252716211903
22 1 14.053947399218487 20.426628128958285 7.744860247099318
23 2 4.960216729135938 18.57806449737835 12.272897901536393
24 1 2.480108364567971 19.68720267632631 13.178505432423808
25 1 4.960216729135938 20.796340855274273 14.084112963311222
26 2 2.480108364567971 17.468926318430388 11.367290370648979
27 1 9.920433458271873 20.796340855274273 14.084112963311222
28 1 7.4403250937039065 21.905479034222232 14.989720494198638
29 1 9.920433458271873 23.014617213170194 15.895328025086053
30 1 7.4403250937039065 19.68720267632631 13.178505432423808
31 2 8.267027881893227 20.056915402642296 10.461682839761563
32 2 5.786919517325261 21.16605358159026 11.367290370648979
33 2 8.267027881893227 22.27519176053822 12.272897901536393
34 1 5.786919517325261 18.947777223694338 9.55607530887415
35 1 6.613622305514582 19.317489950010323 6.839252716211903
36 1 6.613622305514582 21.535766307906247 8.650467777986734
37 2 13.227244611029164 22.27519176053822 12.272897901536393
38 1 10.747136246461196 23.384329939486182 13.178505432423808
39 1 13.227244611029164 24.493468118434144 14.084112963311224
40 2 10.747136246461196 21.16605358159026 11.367290370648979
41 1 11.573839034650518 21.535766307906243 8.650467777986734
42 1 9.09373067008255 22.64490448685421 9.55607530887415
43 2 11.573839034650518 23.754042665802167 10.461682839761563
44 1 9.09373067008255 20.426628128958285 7.744860247099319
45 2 14.053947399218487 24.86318084475013 11.367290370648977
46 1 14.053947399218487 22.644904486854205 9.55607530887415
47 1 4.960216729135939 23.014617213170197 15.895328025086052
48 1 2.480108364567972 21.905479034222235 14.989720494198638
49 1 8.267027881893227 24.493468118434144 14.084112963311222
50 1 5.786919517325263 25.602606297382103 14.989720494198638
51 1 8.26702788189323 26.711744476330065 15.895328025086053
52 1 5.786919517325262 23.384329939486182 13.178505432423808
53 2 6.613622305514583 23.754042665802167 10.461682839761563
54 2 6.613622305514584 25.97231902369809 12.272897901536393
55 1 13.227244611029164 26.711744476330065 15.895328025086052
56 1 10.747136246461196 25.602606297382103 14.98972049419864
57 2 11.573839034650518 25.97231902369809 12.272897901536393
58 1 9.093730670082552 27.081457202646053 13.178505432423808
59 1 11.57383903465052 28.190595381594015 14.084112963311224
60 2 9.09373067008255 24.86318084475013 11.367290370648979
61 1 14.053947399218485 29.299733560541974 14.989720494198636
62 1 14.053947399218483 27.08145720264605 13.178505432423808
63 1 6.613622305514584 28.190595381594015 14.08411296331122
64 1 6.613622305514584 30.408871739489935 15.895328025086052
65 1 11.57383903465052 30.408871739489935 15.89532802508605
66 1 9.093730670082552 29.299733560541974 14.989720494198638
67 1 0.0 2.2182763578959226 1.8112150617748295
68 2 2.480108364567968 1.109138178947961 0.9056075308874146
69 2 4.960216729135936 -8.881784197001252e-16 -2.220446049250313e-16
70 2 0.0 0.0 0.0
71 1 4.440892098500626e-16 6.654829073687768 5.6836451853244885
72 1 2.480108364567968 3.327414536843884 2.7168225926622442
73 1 2.4801083645679682 5.545690894739806 4.528037654437074
74 1 4.960216729135936 4.436552715791845 3.622430123549659
75 1 4.440892098500626e-16 4.436552715791845 3.622430123549659
76 1 1.6534055763786455 5.915403621055794 1.811215061774829
77 2 7.440325093703903 1.109138178947961 0.9056075308874145
78 1 7.440325093703903 3.3274145368438837 2.7168225926622442
79 1 4.960216729135936 2.218276357895922 1.8112150617748295
80 2 4.133513940946613 4.806265442107832 0.9056075308874143
81 2 6.61362230551458 3.6971272631598704 -5.551115123125783e-16
82 2 1.6534055763786453 3.697127263159871 -3.3306690738754696e-16
83 1 1.6534055763786455 10.351956336847639 5.6836451853244885
84 1 7.440325093703903 5.545690894739806 4.528037654437074
85 1 4.960216729135936 6.654829073687768 5.6836451853244885
86 1 4.133513940946613 7.024541800003755 2.716822592662244
87 1 4.133513940946613 9.242818157899677 4.528037654437074
88 1 6.61362230551458 8.133679978951715 3.6224301235496585
89 1 1.6534055763786457 8.133679978951717 3.6224301235496585
90 1 3.3068111527572905 9.612530884215664 1.811215061774829
91 2 9.093730670082548 4.806265442107832 0.9056075308874142
92 1 9.093730670082547 7.024541800003755 2.716822592662244
93 1 6.61362230551458 5.915403621055793 1.811215061774829
94 2 5.7869195173252574 8.503392705267704 0.9056075308874139
95 2 8.267027881893226 7.394254526319742 -9.992007221626409e-16
96 2 3.3068111527572905 7.394254526319742 -7.771561172376096e-16
97 1 3.306811152757291 14.04908360000751 5.683645185324488
98 1 9.093730670082547 9.242818157899677 4.528037654437074
99 1 6.613622305514581 10.351956336847639 5.6836451853244885
100 1 5.786919517325258 10.721669063163626 2.7168225926622434
101 1 5.786919517325258 12.939945421059548 4.528037654437073
102 1 8.267027881893226 11.830807242111586 3.622430123549658
103 1 3.306811152757291 11.830807242111588 3.622430123549658
104 2 10.747136246461192 8.503392705267704 0.9056075308874137
105 1 10.747136246461192 10.721669063163626 2.7168225926622434
106 1 8.267027881893226 9.612530884215664 1.8112150617748286
107 1 4.960216729135938 28.283023563173014 17.050935555973467
108 1 10.747136246461192 12.939945421059548 4.528037654437073
109 1 8.267027881893226 14.04908360000751 5.683645185324488
110 1 4.960216729135938 32.71957627896486 20.923365679523123
111 1 7.440325093703905 29.392161742120976 18.20654308686088
112 1 7.4403250937039065 31.6104381000169 20.01775814863571
113 1 9.920433458271873 30.501299921068938 19.112150617748295
114 1 4.960216729135938 30.501299921068938 19.112150617748295
115 1 6.613622305514583 31.980150826332885 17.050935555973464
116 1 12.400541822839841 29.392161742120976 18.20654308686088
117 1 9.920433458271873 28.283023563173014 17.050935555973464
118 2 7.4403250937039065 33.82871445791282 21.82897321041054
119 1 6.613622305514584 36.41670354212473 20.923365679523123
120 1 12.400541822839841 31.610438100016896 20.017758148635707
121 2 12.400541822839841 33.82871445791282 21.82897321041054
122 1 9.920433458271873 32.71957627896486 20.923365679523126
123 1 9.09373067008255 33.08928900528085 18.20654308686088
124 1 9.093730670082552 35.30756536317677 20.01775814863571
125 1 11.573839034650518 34.198427184228805 19.112150617748295
126 1 6.613622305514584 34.198427184228805 19.112150617748295
127 1 8.267027881893227 35.67727808949275 17.050935555973464
128 1 14.053947399218487 33.08928900528085 18.20654308686088
129 1 11.573839034650518 31.980150826332885 17.050935555973464
130 2 9.093730670082552 37.52584172107269 21.82897321041054
131 1 8.26702788189323 40.1138308052846 20.923365679523123
132 1 14.053947399218487 35.307565363176764 20.017758148635707
133 2 14.053947399218487 37.52584172107269 21.82897321041054
134 1 11.573839034650518 36.41670354212473 20.923365679523126
135 1 10.747136246461196 36.78641626844072 18.20654308686088
136 1 10.747136246461197 39.00469262633664 20.01775814863571
137 1 13.227244611029164 37.895554447388676 19.112150617748295
138 1 8.26702788189323 37.895554447388676 19.112150617748295
139 1 15.707352975597132 36.78641626844072 18.20654308686088
140 1 13.227244611029164 35.67727808949275 17.050935555973464
141 2 10.747136246461197 41.222968984232566 21.82897321041054
142 1 15.707352975597132 39.004692626336634 20.017758148635707
143 2 15.707352975597132 41.222968984232566 21.82897321041054
144 1 13.227244611029164 40.1138308052846 20.923365679523126
