ITEM: TIMESTEP
100000
ITEM: NUMBER OF ATOMS
144
ITEM: BOX BOUNDS xy xz yz pp pp pp
0.0000000000000000e+00 3.6581598377377532e+01 4.9602167291359365e+00
0.0000000000000000e+00 5.0188502597395242e+01 2.1700948189969726e+01
0.0000000000000000e+00 2.5734580741297954e+01 3.9097120807915630e+01
ITEM: ATOMS id type x y z c_peatom
70 2 0 0 0 -3.35407
82 2 1.65341 3.69713 0 -3.34784
69 2 4.96022 3.3734e-16 0 -3.35407
81 2 6.61362 3.69713 0 -3.34784
80 2 4.13351 4.80627 0.905608 -3.35511
86 1 4.22278 7.02834 2.97266 -3.33588
88 1 6.78975 8.16586 3.89484 -3.2584
91 2 9.09373 4.80627 0.905608 -3.35511
93 1 6.66706 5.93005 1.9658 -3.37371
94 2 5.78692 8.50339 0.905608 -3.35028
95 2 8.26703 7.39425 0 -3.34784
92 1 9.18299 7.02834 2.97266 -3.33588
76 1 11.6273 5.93005 1.9658 -3.37371
89 1 11.75 8.16586 3.89484 -3.2584
96 2 13.2272 7.39425 0 -3.34784
104 2 10.7471 8.50339 0.905608 -3.35028
68 2 7.44033 12.2005 0.905608 -3.33318
100 1 5.81349 10.7317 2.86025 -3.30638
102 1 8.25273 11.6382 3.90804 -3.20431
106 1 8.29472 9.58024 1.93911 -3.34675
98 1 9.48496 9.27908 4.9565 -3.19401
77 2 12.4005 12.2005 0.905608 -3.33318
79 1 9.8919 13.2721 1.95677 -3.32086
90 1 13.2549 9.58024 1.93911 -3.34675
103 1 13.2129 11.6382 3.90804 -3.20431
105 1 10.7737 10.7317 2.86025 -3.30638
67 1 14.8521 13.2721 1.95677 -3.32086
87 1 14.4452 9.27908 4.9565 -3.19401
72 1 7.39445 14.3679 2.82264 -3.28374
74 1 9.85564 15.5306 3.75645 -3.17801
78 1 12.3547 14.3679 2.82264 -3.28374
84 1 12.2534 16.6073 4.84412 -3.08374
73 1 17.2136 16.6073 4.84412 -3.08374
75 1 14.8159 15.5306 3.75645 -3.17801
108 1 10.7344 12.1104 5.51078 -3.00998
101 1 15.6946 12.1104 5.51078 -3.00998
2 1 8.40003 13.9701 8.27813 -2.82068
109 1 8.27228 13.901 5.48797 -2.74285
1 1 13.3602 13.9701 8.27813 -2.82068
5 1 12.0567 17.9237 7.7604 -3.01401
6 1 13.3751 16.3044 10.004 -3.28799
9 1 10.8935 15.2366 8.97525 -3.04457
85 1 9.69536 17.678 5.99885 -2.96584
97 1 13.2325 13.901 5.48797 -2.74285
3 1 15.8537 15.2366 8.97525 -3.04457
14 1 17.017 17.9237 7.7604 -3.01401
71 1 14.6556 17.678 5.99885 -2.96584
4 1 18.3353 16.3044 10.004 -3.28799
99 1 12.1625 20.7853 6.43774 -3.0975
17 1 11.7868 19.885 10.0115 -3.26319
22 1 12.354 22.4854 9.0261 -3.1672
83 1 17.1228 20.7853 6.43774 -3.0975
15 1 14.3994 18.839 8.98519 -3.16121
16 1 16.747 19.885 10.0115 -3.26319
35 1 14.7386 21.5466 7.83593 -3.08035
44 1 17.3142 22.4854 9.0261 -3.1672
20 1 19.3596 18.839 8.98519 -3.16121
21 1 19.6989 21.5466 7.83593 -3.08035
36 1 14.9535 23.6326 10.0512 -3.28266
41 1 19.9138 23.6326 10.0512 -3.28266
7 1 10.8864 17.32 10.9512 -3.33385
13 1 15.8466 17.32 10.9512 -3.33385
8 2 13.3306 18.4394 11.9617 -3.35747
31 2 16.6374 22.1365 11.9617 -3.35716
34 1 14.1934 21.0433 10.8927 -3.354
10 2 18.2908 18.4394 11.9617 -3.35747
18 1 19.1536 21.0433 10.8927 -3.354
19 2 21.5976 22.1365 11.9617 -3.35716
32 2 14.1573 23.2457 12.8673 -3.35661
33 2 16.6374 24.3548 13.7729 -3.37257
42 1 17.435 24.7578 10.982 -3.39007
52 1 14.1864 25.4307 14.7526 -3.39007
53 2 14.984 25.8337 11.9617 -3.37257
60 2 17.4641 26.9428 12.8673 -3.35661
37 2 21.5976 24.3548 13.7729 -3.37257
38 1 19.1466 25.4307 14.7526 -3.39007
40 2 19.1175 23.2457 12.8673 -3.35661
43 2 19.9442 25.8337 11.9617 -3.37257
45 2 22.4243 26.9428 12.8673 -3.35661
46 1 22.3952 24.7578 10.982 -3.39007
26 2 15.8107 30.6399 12.8673 -3.36407
54 2 14.984 28.052 13.7729 -3.35716
58 1 17.428 29.1452 14.8419 -3.354
11 2 20.7709 30.6399 12.8673 -3.36407
23 2 18.2908 31.7491 13.7729 -3.35747
57 2 19.9442 28.052 13.7729 -3.35716
62 1 22.3882 29.1452 14.8419 -3.354
12 2 23.251 31.7491 13.7729 -3.35747
30 1 20.735 32.8685 14.7834 -3.33385
24 1 25.6952 32.8685 14.7834 -3.33385
49 1 16.6678 26.5559 15.6834 -3.28266
39 1 21.6281 26.5559 15.6834 -3.28266
51 1 16.8827 28.6419 17.8987 -3.08035
66 1 17.222 31.3495 16.7494 -3.16121
55 1 21.843 28.6419 17.8987 -3.08035
56 1 19.2674 27.7031 16.7085 -3.1672
59 1 19.8346 30.3035 15.7231 -3.26319
61 1 22.1822 31.3495 16.7494 -3.16121
127 1 19.4588 29.4032 19.2968 -3.0975
50 1 24.2276 27.7031 16.7085 -3.1672
63 1 24.7948 30.3035 15.7231 -3.26319
140 1 24.4191 29.4032 19.2968 -3.0975
25 1 18.2463 33.8841 15.7306 -3.28799
28 1 20.7279 34.9519 16.7593 -3.04457
65 1 19.5646 32.2648 17.9742 -3.01401
107 1 21.926 32.5105 19.7357 -2.96584
27 1 23.2065 33.8841 15.7306 -3.28799
29 1 23.2214 36.2184 17.4564 -2.82068
48 1 25.6881 34.9519 16.7593 -3.04457
64 1 24.5249 32.2648 17.9742 -3.01401
115 1 23.3491 36.2875 20.2466 -2.74285
117 1 26.8862 32.5105 19.7357 -2.96584
47 1 28.1816 36.2184 17.4564 -2.82068
129 1 28.3093 36.2875 20.2466 -2.74285
128 1 20.887 38.0781 20.2238 -3.00998
123 1 25.8472 38.0781 20.2238 -3.00998
114 1 21.7657 34.6579 21.9781 -3.17801
116 1 19.368 33.5812 20.8905 -3.08374
111 1 24.3282 33.5812 20.8905 -3.08374
112 1 24.2269 35.8206 22.9119 -3.28374
113 1 26.726 34.6579 21.9781 -3.17801
120 1 29.1872 35.8206 22.9119 -3.28374
110 1 21.7295 36.9164 23.7778 -3.32086
139 1 22.1364 40.9094 20.7781 -3.19401
118 2 24.1811 37.988 24.829 -3.33318
119 1 23.3267 40.6083 23.7955 -3.34675
122 1 26.6897 36.9164 23.7778 -3.32086
124 1 25.8079 39.4568 22.8743 -3.30638
126 1 23.3687 38.5503 21.8265 -3.20431
135 1 27.0966 40.9094 20.7781 -3.19401
121 2 29.1413 37.988 24.829 -3.33318
125 1 28.3289 38.5503 21.8265 -3.20431
132 1 30.7681 39.4568 22.8743 -3.30638
134 1 28.2869 40.6083 23.7955 -3.34675
130 2 25.8345 41.6851 24.829 -3.35028
131 1 24.9543 44.2585 23.7688 -3.37371
138 1 24.8316 42.0226 21.8397 -3.2584
136 1 27.3986 43.1602 22.7619 -3.33588
133 2 30.7947 41.6851 24.829 -3.35028
137 1 29.7918 42.0226 21.8397 -3.2584
141 2 27.4879 45.3822 24.829 -3.35511
144 1 29.9145 44.2585 23.7688 -3.37371
142 1 32.3588 43.1602 22.7619 -3.33588
143 2 32.4481 45.3822 24.829 -3.35511
