ITEM: TIMESTEP
110048
ITEM: NUMBER OF ATOMS
144
ITEM: BOX BOUNDS xy xz yz pp pp pp
0.0000000000000000e+00 3.1001354557099603e+01 4.9602167291359365e+00
0.0000000000000000e+00 5.9893461663189896e+01 1.6120704369691797e+01
0.0000000000000000e+00 2.1734580741297954e+01 4.8802079873710284e+01
ITEM: ATOMS id type x y z c_peatom
70 2 0 0 0 -3.34374
69 2 4.96022 4.3685e-16 0 -3.35889
81 2 6.61362 3.69713 0 -3.35262
82 2 11.5738 3.69713 0 -3.36047
80 2 4.13351 4.80627 0.905608 -3.36579
86 1 4.12652 7.03657 2.63879 -3.32394
93 1 6.60997 5.92315 1.77529 -3.37411
94 2 5.78692 8.50339 0.905608 -3.35334
95 2 8.26703 7.39425 0 -3.36574
88 1 6.62838 8.17481 3.56659 -3.34962
76 1 11.5901 5.92272 1.80231 -3.3424
91 2 9.09373 4.80627 0.905608 -3.35816
92 1 9.11097 7.02938 2.76779 -3.34603
96 2 13.2272 7.39425 0 -3.35591
104 2 10.7471 8.50339 0.905608 -3.36161
89 1 11.5674 8.14756 3.61181 -3.26149
68 2 7.44033 12.2005 0.905608 -3.36128
100 1 5.81763 10.7092 2.70621 -3.35203
101 1 5.96774 12.9164 4.49321 -3.34128
102 1 8.35947 11.8542 3.58392 -3.34034
106 1 8.29206 9.62192 1.77899 -3.35997
77 2 12.4005 12.2005 0.905608 -3.33959
79 1 9.947 13.2609 1.74919 -3.33482
105 1 10.7958 10.7266 2.69505 -3.35856
108 1 10.9305 12.9346 4.48934 -3.34764
90 1 13.2382 9.61748 1.80408 -3.3596
103 1 13.3267 11.7842 3.6215 -3.35942
67 1 14.9367 13.2993 1.79604 -3.36083
72 1 7.51191 14.4277 2.69735 -3.35401
109 1 8.58862 14.1008 5.38114 -3.31285
73 1 7.54103 16.7611 4.57659 -3.25506
74 1 10.0064 15.3852 3.44677 -3.29518
78 1 12.4922 14.2895 2.60097 -3.30449
84 1 12.5731 16.3014 4.20773 -3.1298
85 1 10.1964 17.4292 4.98135 -3.12409
75 1 15.0634 15.503 3.60911 -3.28443
97 1 13.5507 13.983 5.4005 -3.29961
87 1 9.08048 20.2475 4.55706 -3.35328
99 1 11.5771 21.4569 5.42863 -3.37945
98 1 14.0566 20.4129 4.50868 -3.33167
35 1 6.31541 15.1235 6.32756 -3.16195
44 1 9.16204 16.3906 7.21142 -3.20701
71 1 12.9254 18.2467 5.69969 -3.12472
21 1 11.2964 15.1484 6.30917 -3.28438
22 1 14.0929 16.2809 7.15189 -3.20621
7 1 8.06535 22.1794 9.08633 -3.35374
9 1 8.0352 19.9337 7.3041 -3.27858
5 1 9.05577 22.4945 6.36062 -3.35512
1 1 10.5547 19.2092 6.67111 -3.12994
3 1 13.106 20.156 7.39822 -3.27747
6 1 10.5756 21.1913 8.29202 -3.28455
13 1 13.0622 22.2562 9.11759 -3.32303
83 1 16.4983 21.4254 5.44114 -3.33855
2 1 15.5819 18.7474 6.26612 -3.24639
4 1 15.546 21.0638 8.17345 -3.34221
14 1 14.0216 22.5952 6.33378 -3.3676
8 2 10.5405 23.2919 9.96168 -3.3306
15 1 11.5057 23.6604 7.23606 -3.34841
34 1 11.3712 25.8574 9.07729 -3.34151
17 1 8.95568 24.7617 8.14209 -3.33969
10 2 15.5007 23.2919 9.96168 -3.35689
16 1 13.92 24.8188 8.11783 -3.35204
18 1 16.3386 25.8792 9.058 -3.32329
20 1 16.4594 23.6434 7.24525 -3.33843
31 2 13.8473 26.989 9.96168 -3.36394
19 2 18.8075 26.989 9.96168 -3.36552
36 1 11.9192 28.4352 8.19087 -3.20979
53 2 12.1939 30.6862 9.96168 -3.36824
41 1 16.8855 28.4737 8.19167 -3.32003
42 1 14.5667 29.5822 9.13594 -3.33058
43 2 17.1541 30.6862 9.96168 -3.36526
46 1 19.5316 29.5676 9.04931 -3.35875
11 2 13.0206 24.401 10.8673 -3.33877
26 2 17.9808 24.401 10.8673 -3.35328
32 2 11.3672 28.0982 10.8673 -3.3642
52 1 11.4244 30.3081 12.6435 -3.36604
33 2 13.8473 29.2073 11.7729 -3.35503
38 1 16.3957 30.3147 12.6322 -3.37008
40 2 16.3274 28.0982 10.8673 -3.35669
49 1 14.0088 31.4189 13.4958 -3.32711
60 2 14.674 31.7953 10.8673 -3.35722
37 2 18.8075 29.2073 11.7729 -3.35982
39 1 18.9612 31.4306 13.5947 -3.35303
45 2 19.6342 31.7953 10.8673 -3.36235
54 2 12.1939 32.9044 11.7729 -3.35589
63 1 12.1823 35.1174 13.5847 -3.3205
23 2 15.5007 36.6016 11.7729 -3.33838
57 2 17.1541 32.9044 11.7729 -3.36251
58 1 14.6877 34.0219 12.6565 -3.36333
59 1 17.1397 35.1354 13.5623 -3.33274
66 1 14.5937 36.1871 14.5141 -3.35546
56 1 16.6474 32.5526 14.4427 -3.19905
12 2 20.4609 36.6016 11.7729 -3.35202
61 1 19.5559 36.2403 14.4957 -3.34366
62 1 19.6432 34.0076 12.7115 -3.36277
25 1 15.4629 38.7327 13.5028 -3.31877
47 1 15.4477 40.8215 15.2091 -3.2704
65 1 17.0189 37.3316 15.3878 -3.35178
127 1 14.5116 38.3997 16.2996 -3.36992
27 1 20.4576 38.8187 13.5361 -3.35263
28 1 17.959 39.7704 14.32 -3.28014
30 1 17.9788 37.6664 12.6169 -3.32721
64 1 21.9808 37.3598 15.3837 -3.34122
117 1 20.5234 41.0509 15.3049 -3.27522
140 1 19.4732 38.51 16.2744 -3.35533
24 1 22.9248 37.6994 12.6629 -3.3539
48 1 22.9159 39.9243 14.4544 -3.34203
50 1 16.6537 43.6056 14.4578 -3.31799
29 1 18.0098 41.7493 15.9429 -3.12133
51 1 19.4152 44.6199 15.4131 -3.20245
55 1 24.4238 44.7127 15.5293 -3.20988
135 1 16.9558 39.5414 17.2052 -3.38116
138 1 14.4762 40.5765 18.1233 -3.32452
139 1 21.961 39.5718 17.1925 -3.3388
137 1 19.4652 40.7495 18.0737 -3.35357
107 1 15.638 42.6957 16.9256 -3.11793
114 1 15.9727 44.6786 18.38 -3.14557
115 1 17.2938 45.8644 16.3299 -3.28832
111 1 18.3565 43.5435 17.6192 -3.13008
112 1 18.5498 45.5857 19.1526 -3.29794
113 1 21.0097 44.2307 18.0467 -3.25844
129 1 22.2553 45.8675 16.3024 -3.16606
116 1 22.8901 42.2416 16.3666 -3.24581
120 1 23.4121 45.4912 19.0102 -3.28565
110 1 16.0615 46.692 20.0154 -3.31593
126 1 17.6281 48.0654 18.1342 -3.35025
119 1 17.749 50.2632 19.9482 -3.36151
118 2 18.6008 47.6929 20.829 -3.33815
122 1 21.0463 46.5667 19.9336 -3.35328
123 1 19.985 46.9042 17.252 -3.31891
124 1 20.196 49.1446 19.0481 -3.34015
121 2 23.561 47.6929 20.829 -3.36367
125 1 22.5931 48.0812 18.1343 -3.34627
128 1 24.9405 47.0229 17.2345 -3.30431
132 1 25.1513 49.2174 19.0106 -3.35682
134 1 22.73 50.2824 19.9288 -3.35359
130 2 20.2542 51.3901 20.829 -3.36023
131 1 19.4241 53.9723 19.8594 -3.34717
136 1 21.9204 52.8209 19.0672 -3.34571
141 2 21.9076 55.0872 20.829 -3.37399
133 2 25.2144 51.3901 20.829 -3.35906
144 1 24.4063 53.9701 19.9941 -3.32807
142 1 26.891 52.8491 19.0253 -3.26164
143 2 26.8678 55.0872 20.829 -3.34324
