ITEM: TIMESTEP
0
ITEM: NUMBER OF ATOMS
144
ITEM: BOX BOUNDS xy xz yz pp pp pp
0.0000000000000000e+00 2.7901219101389643e+01 4.9602167291359365e+00
0.0000000000000000e+00 5.8507038939504952e+01 1.3020568913981837e+01
0.0000000000000000e+00 1.9734580741297954e+01 4.7415657150025339e+01
ITEM: ATOMS id type x y z c_peatom
70 2 0 0 0 -3.31485
69 2 4.96022 5.335e-16 0 -3.31485
81 2 6.61362 3.69713 0 -3.30759
82 2 11.5738 3.69713 0 -3.30759
80 2 4.13351 4.80627 0.905608 -3.33757
86 1 4.13351 7.02454 2.71682 -3.26006
91 2 9.09373 4.80627 0.905608 -3.33757
92 1 9.09373 7.02454 2.71682 -3.26006
93 1 6.61362 5.9154 1.81122 -3.35993
94 2 5.78692 8.50339 0.905608 -3.32959
76 1 11.5738 5.9154 1.81122 -3.35993
96 2 13.2272 7.39425 0 -3.30759
104 2 10.7471 8.50339 0.905608 -3.32959
68 2 7.44033 12.2005 0.905608 -3.34817
100 1 5.78692 10.7217 2.71682 -3.31827
101 1 5.78692 12.9399 4.52804 -2.27542
102 1 8.26703 11.8308 3.62243 -3.12873
106 1 8.26703 9.61253 1.81122 -3.35834
77 2 12.4005 12.2005 0.905608 -3.34817
79 1 9.92043 13.3097 1.81122 -3.35364
90 1 13.2272 9.61253 1.81122 -3.35834
103 1 13.2272 11.8308 3.62243 -3.12873
105 1 10.7471 10.7217 2.71682 -3.31827
108 1 10.7471 12.9399 4.52804 -2.27542
67 1 14.8807 13.3097 1.81122 -3.35364
72 1 7.44033 14.4188 2.71682 -3.31178
73 1 7.44033 16.6371 4.52804 -2.98051
109 1 8.26703 14.0491 4.93365 -2.55637
74 1 9.92043 15.5279 3.62243 -3.06704
78 1 12.4005 14.4188 2.71682 -3.31178
84 1 12.4005 16.6371 4.52804 -2.98051
97 1 13.2272 14.0491 4.93365 -2.55637
75 1 14.8807 15.5279 3.62243 -3.06704
87 1 9.09373 20.3342 4.52804 -3.18686
88 1 11.5738 19.2251 3.62243 -3.37629
89 1 16.5341 19.2251 3.62243 -3.37629
98 1 14.0539 20.3342 4.52804 -3.18686
35 1 5.68358 14.465 5.33925 -2.08044
44 1 8.16369 15.5741 6.24486 -2.67715
21 1 10.6438 14.465 5.33925 -2.08044
22 1 13.1239 15.5741 6.24486 -2.67715
85 1 9.92043 17.7462 4.93365 0.310817
71 1 14.8807 17.7462 4.93365 0.310817
1 1 8.99039 18.1621 5.33925 0.281483
6 1 8.99039 20.3804 7.15047 -3.3854
7 1 6.51028 21.4896 8.05608 -3.39195
9 1 6.51028 19.2713 6.24486 -3.34339
2 1 13.9506 18.1621 5.33925 0.281483
3 1 11.4705 19.2713 6.24486 -3.34339
4 1 13.9506 20.3804 7.15047 -3.3854
13 1 11.4705 21.4896 8.05608 -3.39195
14 1 12.2972 21.8593 5.33925 1.44113
99 1 11.5738 21.4433 4.93365 1.47836
5 1 17.2574 21.8593 5.33925 1.44113
83 1 16.5341 21.4433 4.93365 1.47836
8 2 8.99039 22.5987 8.96168 -3.30774
10 2 13.9506 22.5987 8.96168 -3.30774
15 1 9.8171 22.9684 6.24486 -3.23282
16 1 12.2972 24.0775 7.15047 -3.42974
31 2 12.2972 26.2958 8.96168 -3.32801
34 1 9.8171 25.1867 8.05608 -3.35944
17 1 17.2574 24.0775 7.15047 -3.42974
18 1 14.7773 25.1867 8.05608 -3.35944
19 2 17.2574 26.2958 8.96168 -3.32801
20 1 14.7773 22.9684 6.24486 -3.23282
36 1 10.6438 27.7747 7.15047 -3.40251
42 1 13.1239 28.8838 8.05608 -3.36809
53 2 10.6438 29.9929 8.96168 -3.3321
41 1 15.604 27.7747 7.15047 -3.40251
43 2 15.604 29.9929 8.96168 -3.3321
46 1 18.0841 28.8838 8.05608 -3.36809
32 2 9.8171 27.405 9.86729 -3.3059
33 2 12.2972 28.5141 10.7729 -3.3321
49 1 12.2972 30.7324 12.5841 -3.40251
52 1 9.8171 29.6232 11.6785 -3.36809
60 2 13.1239 31.1021 9.86729 -3.3059
37 2 17.2574 28.5141 10.7729 -3.3321
38 1 14.7773 29.6232 11.6785 -3.36809
39 1 17.2574 30.7324 12.5841 -3.40251
40 2 14.7773 27.405 9.86729 -3.3059
45 2 18.0841 31.1021 9.86729 -3.3059
26 2 11.4705 34.7992 9.86729 -3.29315
54 2 10.6438 32.2112 10.7729 -3.32801
58 1 13.1239 33.3204 11.6785 -3.35944
63 1 10.6438 34.4295 12.5841 -3.42974
66 1 13.1239 35.5386 13.4897 -3.23282
11 2 16.4307 34.7992 9.86729 -3.29315
23 2 13.9506 35.9083 10.7729 -3.30774
57 2 15.604 32.2112 10.7729 -3.32801
59 1 15.604 34.4295 12.5841 -3.42974
61 1 18.0841 35.5386 13.4897 -3.23282
62 1 18.0841 33.3204 11.6785 -3.35944
12 2 18.9108 35.9083 10.7729 -3.30774
64 1 10.6438 36.6478 14.3953 1.44113
127 1 11.3672 37.0637 14.8009 1.47836
25 1 13.9506 38.1266 12.5841 -3.3854
28 1 16.4307 39.2358 13.4897 -3.34339
30 1 16.4307 37.0175 11.6785 -3.39195
47 1 13.9506 40.3449 14.3953 0.281483
65 1 15.604 36.6478 14.3953 1.44113
140 1 16.3274 37.0637 14.8009 1.47836
24 1 21.3909 37.0175 11.6785 -3.39195
27 1 18.9108 38.1266 12.5841 -3.3854
29 1 18.9108 40.3449 14.3953 0.281483
48 1 21.3909 39.2358 13.4897 -3.34339
50 1 14.7773 42.9329 13.4897 -2.67715
51 1 17.2574 44.042 14.3953 -2.08044
115 1 14.674 44.458 14.8009 -2.55637
117 1 17.9808 40.7608 14.8009 0.310817
55 1 22.2176 44.042 14.3953 -2.08044
56 1 19.7375 42.9329 13.4897 -2.67715
129 1 19.6342 44.458 14.8009 -2.55637
135 1 13.8473 38.1728 15.2065 -3.18686
138 1 11.3672 39.282 16.1122 -3.37629
137 1 16.3274 39.282 16.1122 -3.37629
139 1 18.8075 38.1728 15.2065 -3.18686
107 1 13.0206 40.7608 14.8009 0.310817
114 1 13.0206 42.9791 16.1122 -3.06704
111 1 15.5007 41.87 15.2065 -2.98051
112 1 15.5007 44.0882 17.0178 -3.31178
113 1 17.9808 42.9791 16.1122 -3.06704
116 1 20.4609 41.87 15.2065 -2.98051
120 1 20.4609 44.0882 17.0178 -3.31178
110 1 13.0206 45.1974 17.9234 -3.35364
118 2 15.5007 46.3065 18.829 -3.34817
119 1 14.674 48.8945 17.9234 -3.35834
122 1 17.9808 45.1974 17.9234 -3.35364
123 1 17.1541 45.5671 15.2065 -2.27542
124 1 17.1541 47.7854 17.0178 -3.31827
126 1 14.674 46.6762 16.1122 -3.12873
121 2 20.4609 46.3065 18.829 -3.34817
125 1 19.6342 46.6762 16.1122 -3.12873
128 1 22.1143 45.5671 15.2065 -2.27542
132 1 22.1143 47.7854 17.0178 -3.31827
134 1 19.6342 48.8945 17.9234 -3.35834
130 2 17.1541 50.0036 18.829 -3.32959
131 1 16.3274 52.5916 17.9234 -3.35993
133 2 22.1143 50.0036 18.829 -3.32959
136 1 18.8075 51.4825 17.0178 -3.26006
141 2 18.8075 53.7008 18.829 -3.33757
144 1 21.2876 52.5916 17.9234 -3.35993
142 1 23.7677 51.4825 17.0178 -3.26006
143 2 23.7677 53.7008 18.829 -3.33757
95 2 21.2876 54.8099 19.7346 -3.30759
