#Lammps coordinate file for CSL - Axis: [1 1 1]  Angle: (1, 3) -> 59.99999999999999  Plane indices: [0 1 1]  z-position: [4.9336451853244885 14.800935555973464]  Repeats: 1 1 (3, 3) (black, white)  Fixed: 2.228  Boundary equiv: True
144 atoms

2 atom types

0.0 9.920433458271871 xlo xhi
0.0 11.091381789479609 ylo yhi
0.0 19.734580741297954 zlo zhi
4.9602167291359365 13.020568913981837 47.41565715002534 xy xz yz

Atoms

1 1 8.990392821558885 18.162137680272863 5.339252716211904
2 1 13.950609550694818 18.16213768027286 5.339252716211904
3 1 11.470501186126853 19.27127585922082 6.24486024709932
4 1 13.950609550694818 20.380414038168784 7.150467777986734
5 1 17.25742070345211 21.85926494343273 5.339252716211904
6 1 8.990392821558885 20.380414038168784 7.150467777986734
7 1 6.5102844569909175 21.489552217116746 8.05607530887415
8 2 8.990392821558885 22.598690396064704 8.961682839761563
9 1 6.5102844569909175 19.27127585922082 6.244860247099318
10 2 13.950609550694818 22.598690396064704 8.961682839761563
11 2 11.470501186126853 23.707828575012666 9.867290370648979
12 2 13.95060955069482 24.816966753960628 10.772897901536393
13 1 11.470501186126853 21.489552217116746 8.05607530887415
14 1 12.297203974316172 21.85926494343273 5.339252716211904
15 1 9.817095609748208 22.968403122380693 6.244860247099318
16 1 12.297203974316174 24.077541301328655 7.150467777986734
17 1 17.25742070345211 24.07754130132865 7.150467777986734
18 1 14.777312338884144 25.186679480276617 8.05607530887415
19 2 17.257420703452112 26.295817659224575 8.961682839761563
20 1 14.77731233888414 22.968403122380693 6.24486024709932
21 1 15.604015127073467 25.5563922065926 5.339252716211902
22 1 18.084123491641435 26.665530385540563 6.244860247099318
23 2 8.990392821558885 24.816966753960628 10.772897901536393
24 1 6.510284456990918 25.92610493290859 11.678505432423808
25 1 8.990392821558885 27.035243111856552 12.584112963311222
26 2 6.510284456990918 23.70782857501267 9.867290370648979
27 1 13.950609550694821 27.035243111856552 12.584112963311222
28 1 11.470501186126853 28.14438129080451 13.489720494198638
29 1 13.950609550694821 29.253519469752472 14.395328025086053
30 1 11.470501186126853 25.92610493290859 11.678505432423808
31 2 12.297203974316176 26.295817659224575 8.961682839761563
32 2 9.817095609748208 27.404955838172537 9.867290370648979
33 2 12.297203974316176 28.5140940171205 10.772897901536393
34 1 9.817095609748208 25.186679480276617 8.05607530887415
35 1 10.64379839793753 25.5563922065926 5.339252716211902
36 1 10.64379839793753 27.774668564488525 7.150467777986734
37 2 17.257420703452112 28.5140940171205 10.772897901536393
38 1 14.777312338884144 29.62323219606846 11.678505432423808
39 1 17.257420703452112 30.732370375016423 12.584112963311224
40 2 14.777312338884144 27.404955838172537 9.867290370648979
41 1 15.604015127073467 27.774668564488522 7.150467777986734
42 1 13.123906762505499 28.883806743436487 8.05607530887415
43 2 15.604015127073467 29.992944922384446 8.961682839761563
44 1 13.123906762505499 26.665530385540563 6.244860247099318
45 2 18.084123491641435 31.102083101332408 9.867290370648977
46 1 18.084123491641435 28.883806743436484 8.05607530887415
47 1 8.990392821558887 29.253519469752476 14.395328025086052
48 1 6.510284456990919 28.144381290804514 13.489720494198638
49 1 12.297203974316176 30.732370375016423 12.584112963311222
50 1 9.817095609748211 31.84150855396438 13.489720494198638
51 1 12.297203974316176 32.95064673291235 14.395328025086053
52 1 9.81709560974821 29.62323219606846 11.678505432423808
53 2 10.64379839793753 29.992944922384446 8.961682839761563
54 2 10.64379839793753 32.21122128028037 10.772897901536393
55 1 17.257420703452112 32.95064673291235 14.395328025086052
56 1 14.777312338884144 31.84150855396438 13.48972049419864
57 2 15.604015127073467 32.21122128028037 10.772897901536393
58 1 13.123906762505499 33.32035945922833 11.678505432423808
59 1 15.604015127073467 34.429497638176294 12.584112963311224
60 2 13.123906762505499 31.102083101332408 9.867290370648979
61 1 18.08412349164143 35.53863581712425 13.489720494198636
62 1 18.08412349164143 33.32035945922833 11.678505432423808
63 1 10.64379839793753 34.429497638176294 12.58411296331122
64 1 10.64379839793753 36.64777399607222 14.395328025086052
65 1 15.604015127073467 36.64777399607222 14.39532802508605
66 1 13.123906762505499 35.53863581712425 13.489720494198638
67 1 0.0 2.218276357895922 1.8112150617748295
68 2 2.4801083645679673 1.109138178947962 0.9056075308874145
69 2 4.960216729135936 0.0 -2.220446049250313e-16
70 2 0.0 0.0 0.0
71 1 8.881784197001252e-16 6.654829073687768 4.9336451853244885
72 1 2.4801083645679673 3.327414536843884 2.7168225926622442
73 1 2.4801083645679682 5.545690894739806 4.528037654437073
74 1 4.960216729135936 4.436552715791845 3.6224301235496585
75 1 8.881784197001252e-16 4.436552715791845 3.6224301235496585
76 1 1.6534055763786455 5.915403621055794 1.811215061774829
77 2 7.440325093703903 1.109138178947962 0.9056075308874143
78 1 7.440325093703903 3.327414536843884 2.7168225926622442
79 1 4.960216729135936 2.218276357895922 1.811215061774829
80 2 4.133513940946613 4.806265442107832 0.9056075308874143
81 2 6.61362230551458 3.697127263159871 -6.661338147750939e-16
82 2 1.6534055763786455 3.697127263159871 -4.440892098500626e-16
83 1 1.6534055763786455 10.351956336847639 4.9336451853244885
84 1 7.440325093703903 5.545690894739806 4.528037654437073
85 1 4.960216729135936 6.654829073687768 4.9336451853244885
86 1 4.133513940946613 7.024541800003755 2.716822592662244
87 1 4.133513940946613 9.242818157899677 4.528037654437073
88 1 6.61362230551458 8.133679978951715 3.6224301235496585
89 1 1.6534055763786455 8.133679978951717 3.6224301235496585
90 1 3.3068111527572905 9.612530884215664 1.811215061774829
91 2 9.093730670082548 4.806265442107832 0.9056075308874141
92 1 9.093730670082547 7.024541800003755 2.716822592662244
93 1 6.61362230551458 5.915403621055793 1.811215061774829
94 2 5.7869195173252574 8.503392705267704 0.9056075308874139
95 2 8.267027881893226 7.394254526319742 -1.1102230246251565e-15
96 2 3.3068111527572905 7.394254526319742 -8.881784197001252e-16
97 1 3.306811152757291 14.04908360000751 4.933645185324487
98 1 9.093730670082547 9.242818157899677 4.528037654437073
99 1 6.613622305514581 10.351956336847639 4.9336451853244885
100 1 5.786919517325258 10.721669063163626 2.7168225926622434
101 1 5.786919517325258 12.939945421059548 4.528037654437073
102 1 8.267027881893226 11.830807242111586 3.6224301235496585
103 1 3.306811152757291 11.830807242111588 3.6224301235496585
104 2 10.747136246461192 8.503392705267704 0.9056075308874136
105 1 10.747136246461192 10.721669063163626 2.7168225926622434
106 1 8.267027881893226 9.612530884215664 1.8112150617748286
107 1 13.020568913981833 40.760828076337575 14.800935555973467
108 1 10.747136246461192 12.939945421059548 4.528037654437073
109 1 8.267027881893226 14.04908360000751 4.933645185324487
110 1 13.020568913981833 45.197380792129415 17.923365679523123
111 1 15.500677278549801 41.86996625528553 15.20654308686088
112 1 15.500677278549801 44.08824261318146 17.01775814863571
113 1 17.98078564311777 42.9791044342335 16.112150617748295
114 1 13.020568913981833 42.9791044342335 16.112150617748295
115 1 14.673974490360479 44.45795533949744 14.800935555973464
116 1 20.460894007685734 41.86996625528553 15.20654308686088
117 1 17.98078564311777 40.760828076337575 14.800935555973464
118 2 15.500677278549801 46.306518971077374 18.82897321041054
119 1 14.673974490360479 48.894508055289286 17.923365679523123
120 1 20.460894007685734 44.08824261318146 17.017758148635707
121 2 20.460894007685738 46.306518971077374 18.82897321041054
122 1 17.98078564311777 45.197380792129415 17.923365679523126
123 1 17.154082854928447 45.567093518445404 15.20654308686088
124 1 17.154082854928447 47.78536987634133 17.01775814863571
125 1 19.634191219496415 46.67623169739337 16.112150617748295
126 1 14.673974490360479 46.67623169739337 16.112150617748295
127 1 16.327380066739124 48.15508260265731 14.800935555973464
128 1 22.114299584064383 45.567093518445404 15.20654308686088
129 1 19.634191219496415 44.45795533949744 14.800935555973464
130 2 17.154082854928447 50.003646234237245 18.82897321041054
131 1 16.327380066739124 52.59163531844916 17.923365679523123
132 1 22.114299584064383 47.78536987634133 17.017758148635707
133 2 22.114299584064383 50.003646234237245 18.82897321041054
134 1 19.634191219496415 48.894508055289286 17.923365679523126
135 1 18.807488431307092 49.264220781605275 15.20654308686088
136 1 18.807488431307092 51.4824971395012 17.01775814863571
137 1 21.28759679587506 50.37335896055324 16.112150617748295
138 1 16.327380066739124 50.37335896055324 16.112150617748295
139 1 23.76770516044303 49.264220781605275 15.20654308686088
140 1 21.28759679587506 48.15508260265731 14.800935555973464
141 2 18.807488431307092 53.70077349739712 18.82897321041054
142 1 23.76770516044303 51.4824971395012 17.017758148635707
143 2 23.76770516044303 53.70077349739712 18.82897321041054
144 1 21.28759679587506 52.59163531844916 17.923365679523126
