#Lammps coordinate file for CSL - Axis: [1 1 1]  Angle: (1, 3) -> 59.99999999999999  Plane indices: [0 1 1]  z-position: [5.1836451853244885 15.550935555973464]  Repeats: 1 1 (3, 3) (black, white)  Fixed: 2.228  Boundary equiv: True
144 atoms

2 atom types

0.0 9.920433458271871 xlo xhi
0.0 11.091381789479609 ylo yhi
0.0 20.734580741297954 zlo zhi
4.9602167291359365 17.980785643117777 36.32427536054573 xy xz yz

Atoms

1 1 11.470501186126853 12.616446785533057 5.839252716211904
2 1 16.430717915262786 12.616446785533055 5.839252716211904
3 1 13.950609550694821 13.725584964481016 6.74486024709932
4 1 16.43071791526279 14.834723143428977 7.650467777986734
5 1 19.73752906802008 16.313574048692924 5.839252716211904
6 1 11.470501186126853 14.834723143428977 7.650467777986734
7 1 8.990392821558887 15.94386132237694 8.55607530887415
8 2 11.470501186126853 17.0529995013249 9.461682839761563
9 1 8.990392821558887 13.725584964481019 6.744860247099319
10 2 16.43071791526279 17.0529995013249 9.461682839761563
11 2 13.950609550694821 18.16213768027286 10.367290370648979
12 2 16.43071791526279 19.27127585922082 11.272897901536393
13 1 13.950609550694821 15.94386132237694 8.55607530887415
14 1 14.777312338884142 16.313574048692924 5.839252716211904
15 1 12.297203974316176 17.422712227640886 6.744860247099319
16 1 14.777312338884144 18.53185040658885 7.650467777986734
17 1 19.73752906802008 18.53185040658885 7.650467777986734
18 1 17.257420703452112 19.64098858553681 8.55607530887415
19 2 19.73752906802008 20.75012676448477 9.461682839761563
20 1 17.257420703452112 17.422712227640886 6.74486024709932
21 1 18.084123491641435 20.010701311852795 5.839252716211903
22 1 20.564231856209403 21.119839490800757 6.744860247099318
23 2 11.470501186126855 19.27127585922082 11.272897901536393
24 1 8.990392821558888 20.380414038168784 12.178505432423808
25 1 11.470501186126855 21.489552217116746 13.084112963311222
26 2 8.990392821558888 18.162137680272863 10.367290370648979
27 1 16.43071791526279 21.489552217116746 13.084112963311222
28 1 13.950609550694823 22.598690396064704 13.989720494198638
29 1 16.43071791526279 23.707828575012666 14.895328025086053
30 1 13.950609550694823 20.380414038168784 12.178505432423808
31 2 14.777312338884144 20.750126764484772 9.461682839761563
32 2 12.297203974316178 21.85926494343273 10.367290370648979
33 2 14.777312338884144 22.968403122380693 11.272897901536393
34 1 12.297203974316178 19.64098858553681 8.55607530887415
35 1 13.123906762505499 20.010701311852795 5.839252716211903
36 1 13.123906762505499 22.22897766974872 7.650467777986734
37 2 19.73752906802008 22.968403122380693 11.272897901536393
38 1 17.257420703452112 24.077541301328655 12.178505432423808
39 1 19.73752906802008 25.186679480276617 13.084112963311224
40 2 17.257420703452112 21.85926494343273 10.367290370648979
41 1 18.084123491641435 22.228977669748716 7.650467777986734
42 1 15.604015127073467 23.33811584869668 8.55607530887415
43 2 18.084123491641435 24.44725402764464 9.461682839761563
44 1 15.604015127073467 21.119839490800757 6.744860247099319
45 2 20.564231856209403 25.5563922065926 10.367290370648977
46 1 20.564231856209403 23.338115848696678 8.55607530887415
47 1 11.470501186126857 23.70782857501267 14.895328025086052
48 1 8.990392821558888 22.598690396064708 13.989720494198638
49 1 14.777312338884144 25.186679480276617 13.084112963311222
50 1 12.29720397431618 26.295817659224575 13.989720494198638
51 1 14.777312338884146 27.404955838172537 14.895328025086053
52 1 12.29720397431618 24.077541301328655 12.178505432423808
53 2 13.123906762505499 24.44725402764464 9.461682839761563
54 2 13.1239067625055 26.665530385540563 11.272897901536393
55 1 19.73752906802008 27.404955838172537 14.895328025086052
56 1 17.257420703452112 26.295817659224575 13.98972049419864
57 2 18.084123491641435 26.665530385540563 11.272897901536393
58 1 15.604015127073469 27.774668564488525 12.178505432423808
59 1 18.084123491641435 28.883806743436487 13.084112963311224
60 2 15.604015127073467 25.5563922065926 10.367290370648979
61 1 20.564231856209403 29.992944922384446 13.989720494198636
62 1 20.5642318562094 27.774668564488522 12.178505432423808
63 1 13.1239067625055 28.883806743436487 13.08411296331122
64 1 13.1239067625055 31.102083101332408 14.895328025086052
65 1 18.084123491641435 31.102083101332408 14.89532802508605
66 1 15.604015127073469 29.992944922384446 13.989720494198638
67 1 0.0 2.2182763578959226 1.811215061774829
68 2 2.4801083645679682 1.109138178947961 0.9056075308874146
69 2 4.960216729135936 -8.881784197001252e-16 -2.220446049250313e-16
70 2 0.0 0.0 0.0
71 1 0.0 6.654829073687768 5.1836451853244885
72 1 2.4801083645679682 3.327414536843884 2.7168225926622442
73 1 2.4801083645679682 5.545690894739806 4.528037654437074
74 1 4.960216729135936 4.436552715791845 3.6224301235496585
75 1 0.0 4.436552715791845 3.6224301235496585
76 1 1.6534055763786455 5.915403621055794 1.811215061774829
77 2 7.440325093703903 1.109138178947961 0.9056075308874144
78 1 7.440325093703903 3.3274145368438837 2.7168225926622442
79 1 4.960216729135936 2.218276357895922 1.811215061774829
80 2 4.133513940946613 4.806265442107832 0.9056075308874144
81 2 6.61362230551458 3.6971272631598704 -6.106226635438361e-16
82 2 1.6534055763786455 3.697127263159871 -3.885780586188048e-16
83 1 1.6534055763786455 10.351956336847639 5.1836451853244885
84 1 7.440325093703903 5.545690894739806 4.528037654437074
85 1 4.960216729135936 6.654829073687768 5.1836451853244885
86 1 4.133513940946613 7.024541800003755 2.716822592662244
87 1 4.133513940946613 9.242818157899677 4.528037654437074
88 1 6.61362230551458 8.133679978951715 3.6224301235496585
89 1 1.6534055763786455 8.133679978951717 3.6224301235496585
90 1 3.306811152757291 9.612530884215664 1.8112150617748286
91 2 9.093730670082548 4.806265442107832 0.9056075308874142
92 1 9.093730670082547 7.024541800003755 2.716822592662244
93 1 6.61362230551458 5.915403621055793 1.8112150617748286
94 2 5.7869195173252574 8.503392705267704 0.905607530887414
95 2 8.267027881893226 7.394254526319742 -9.992007221626409e-16
96 2 3.306811152757291 7.394254526319742 -7.771561172376096e-16
97 1 3.306811152757291 14.04908360000751 5.183645185324488
98 1 9.093730670082547 9.242818157899677 4.528037654437074
99 1 6.613622305514581 10.351956336847639 5.1836451853244885
100 1 5.786919517325258 10.721669063163626 2.7168225926622434
101 1 5.786919517325258 12.939945421059548 4.528037654437073
102 1 8.267027881893226 11.830807242111586 3.6224301235496585
103 1 3.306811152757291 11.830807242111588 3.6224301235496585
104 2 10.747136246461192 8.503392705267704 0.9056075308874137
105 1 10.747136246461192 10.721669063163626 2.7168225926622434
106 1 8.267027881893226 9.612530884215664 1.8112150617748282
107 1 17.98078564311777 29.66944628685796 15.550935555973467
108 1 10.747136246461192 12.939945421059548 4.528037654437073
109 1 8.267027881893226 14.04908360000751 5.183645185324488
110 1 17.98078564311777 34.1059990026498 18.923365679523123
111 1 20.460894007685738 30.77858446580592 16.20654308686088
112 1 20.460894007685738 32.996860823701844 18.01775814863571
113 1 22.941002372253706 31.887722644753882 17.112150617748295
114 1 17.98078564311777 31.887722644753882 17.112150617748295
115 1 19.634191219496415 33.36657355001783 15.550935555973464
116 1 25.421110736821674 30.77858446580592 16.20654308686088
117 1 22.941002372253706 29.66944628685796 15.550935555973464
118 2 20.460894007685738 35.21513718159777 19.82897321041054
119 1 19.634191219496415 37.803126265809674 18.923365679523123
120 1 25.421110736821674 32.996860823701844 18.017758148635707
121 2 25.421110736821674 35.21513718159777 19.82897321041054
122 1 22.941002372253706 34.1059990026498 18.923365679523126
123 1 22.114299584064383 34.47571172896579 16.20654308686088
124 1 22.114299584064383 36.693988086861715 18.01775814863571
125 1 24.59440794863235 35.58484990791376 17.112150617748295
126 1 19.634191219496415 35.58484990791376 17.112150617748295
127 1 21.28759679587506 37.063700813177704 15.550935555973464
128 1 27.07451631320032 34.47571172896579 16.20654308686088
129 1 24.59440794863235 33.36657355001783 15.550935555973464
130 2 22.114299584064383 38.91226444475764 19.82897321041054
131 1 21.28759679587506 41.500253528969544 18.923365679523123
132 1 27.07451631320032 36.693988086861715 18.017758148635707
133 2 27.07451631320032 38.91226444475764 19.82897321041054
134 1 24.59440794863235 37.803126265809674 18.923365679523126
135 1 23.76770516044303 38.17283899212566 16.20654308686088
136 1 23.76770516044303 40.391115350021586 18.01775814863571
137 1 26.247813525010997 39.28197717107363 17.112150617748295
138 1 21.28759679587506 39.28197717107363 17.112150617748295
139 1 28.727921889578965 38.17283899212566 16.20654308686088
140 1 26.247813525010997 37.063700813177704 15.550935555973464
141 2 23.76770516044303 42.60939170791751 19.82897321041054
142 1 28.727921889578965 40.391115350021586 18.017758148635707
143 2 28.727921889578965 42.60939170791751 19.82897321041054
144 1 26.247813525010997 41.500253528969544 18.923365679523126
