#Lammps coordinate file for CSL - Axis: [1 1 1]  Angle: (1, 3) -> 59.99999999999999  Plane indices: [0 1 1]  z-position: [5.1836451853244885 15.550935555973464]  Repeats: 1 1 (3, 3) (black, white)  Fixed: 2.228  Boundary equiv: True
144 atoms

2 atom types

0.0 9.920433458271871 xlo xhi
0.0 11.091381789479609 ylo yhi
0.0 20.734580741297954 zlo zhi
4.9602167291359365 23.5610294633957 43.25638897897049 xy xz yz

Atoms

1 1 14.260623096265817 16.082503594745436 5.839252716211904
2 1 19.22083982540175 16.082503594745436 5.839252716211904
3 1 16.740731460833786 17.191641773693398 6.74486024709932
4 1 19.22083982540175 18.300779952641356 7.650467777986734
5 1 22.52765097815904 19.779630857905303 5.839252716211904
6 1 14.260623096265816 18.300779952641356 7.650467777986734
7 1 11.78051473169785 19.409918131589322 8.55607530887415
8 2 14.260623096265817 20.51905631053728 9.461682839761563
9 1 11.78051473169785 17.191641773693398 6.744860247099318
10 2 19.22083982540175 20.51905631053728 9.461682839761563
11 2 16.740731460833786 21.62819448948524 10.367290370648979
12 2 19.22083982540175 22.737332668433204 11.272897901536393
13 1 16.740731460833786 19.409918131589322 8.55607530887415
14 1 17.567434249023105 19.779630857905303 5.839252716211904
15 1 15.08732588445514 20.88876903685327 6.744860247099318
16 1 17.567434249023105 21.997907215801227 7.650467777986734
17 1 22.52765097815904 21.997907215801227 7.650467777986734
18 1 20.047542613591077 23.10704539474919 8.55607530887415
19 2 22.527650978159045 24.21618357369715 9.461682839761563
20 1 20.047542613591073 20.88876903685327 6.74486024709932
21 1 20.8742454017804 23.476758121065174 5.839252716211902
22 1 23.354353766348368 24.58589630001314 6.744860247099318
23 2 14.260623096265817 22.737332668433204 11.272897901536393
24 1 11.78051473169785 23.846470847381163 12.178505432423808
25 1 14.260623096265817 24.955609026329128 13.084112963311222
26 2 11.78051473169785 21.628194489485242 10.367290370648979
27 1 19.220839825401754 24.955609026329128 13.084112963311222
28 1 16.740731460833786 26.064747205277087 13.989720494198638
29 1 19.220839825401754 27.173885384225045 14.895328025086053
30 1 16.740731460833786 23.846470847381163 12.178505432423808
31 2 17.56743424902311 24.21618357369715 9.461682839761563
32 2 15.08732588445514 25.32532175264511 10.367290370648979
33 2 17.56743424902311 26.434459931593075 11.272897901536393
34 1 15.08732588445514 23.107045394749193 8.55607530887415
35 1 15.914028672644461 23.476758121065174 5.839252716211902
36 1 15.914028672644461 25.695034478961098 7.650467777986734
37 2 22.527650978159045 26.434459931593075 11.272897901536393
38 1 20.047542613591077 27.543598110541033 12.178505432423808
39 1 22.527650978159045 28.652736289489 13.084112963311224
40 2 20.047542613591077 25.32532175264511 10.367290370648979
41 1 20.8742454017804 25.695034478961098 7.650467777986734
42 1 18.39413703721243 26.804172657909064 8.55607530887415
43 2 20.8742454017804 27.913310836857022 9.461682839761563
44 1 18.39413703721243 24.58589630001314 6.744860247099318
45 2 23.354353766348368 29.02244901580498 10.367290370648977
46 1 23.354353766348368 26.804172657909056 8.55607530887415
47 1 14.260623096265817 27.173885384225052 14.895328025086052
48 1 11.780514731697851 26.064747205277087 13.989720494198638
49 1 17.56743424902311 28.652736289489 13.084112963311222
50 1 15.087325884455142 29.761874468436957 13.989720494198638
51 1 17.56743424902311 30.871012647384916 14.895328025086053
52 1 15.08732588445514 27.543598110541033 12.178505432423808
53 2 15.914028672644463 27.913310836857022 9.461682839761563
54 2 15.914028672644463 30.131587194752946 11.272897901536393
55 1 22.527650978159045 30.871012647384916 14.895328025086052
56 1 20.047542613591077 29.761874468436957 13.98972049419864
57 2 20.8742454017804 30.131587194752946 11.272897901536393
58 1 18.39413703721243 31.240725373700904 12.178505432423808
59 1 20.8742454017804 32.34986355264887 13.084112963311224
60 2 18.39413703721243 29.02244901580498 10.367290370648979
61 1 23.354353766348364 33.45900173159683 13.989720494198636
62 1 23.35435376634836 31.240725373700904 12.178505432423808
63 1 15.914028672644463 32.34986355264887 13.08411296331122
64 1 15.914028672644463 34.56813991054479 14.895328025086052
65 1 20.8742454017804 34.56813991054479 14.89532802508605
66 1 18.39413703721243 33.45900173159683 13.989720494198638
67 1 0.0 2.218276357895922 1.8112150617748295
68 2 2.4801083645679682 1.109138178947961 0.9056075308874147
69 2 4.960216729135936 0.0 -2.220446049250313e-16
70 2 0.0 0.0 0.0
71 1 0.0 6.654829073687768 5.1836451853244885
72 1 2.4801083645679682 3.327414536843884 2.7168225926622442
73 1 2.4801083645679682 5.545690894739806 4.528037654437075
74 1 4.960216729135936 4.436552715791845 3.6224301235496585
75 1 0.0 4.436552715791845 3.6224301235496585
76 1 1.6534055763786455 5.915403621055794 1.811215061774829
77 2 7.440325093703903 1.109138178947961 0.9056075308874145
78 1 7.440325093703903 3.327414536843884 2.7168225926622442
79 1 4.960216729135936 2.218276357895922 1.811215061774829
80 2 4.133513940946613 4.806265442107832 0.9056075308874143
81 2 6.61362230551458 3.697127263159871 -5.551115123125783e-16
82 2 1.6534055763786455 3.697127263159871 -3.3306690738754696e-16
83 1 1.6534055763786455 10.351956336847639 5.1836451853244885
84 1 7.440325093703903 5.545690894739806 4.528037654437075
85 1 4.960216729135936 6.654829073687768 5.1836451853244885
86 1 4.133513940946613 7.024541800003755 2.716822592662244
87 1 4.133513940946613 9.242818157899677 4.528037654437075
88 1 6.61362230551458 8.133679978951715 3.6224301235496585
89 1 1.6534055763786455 8.133679978951717 3.6224301235496585
90 1 3.306811152757291 9.612530884215664 1.811215061774829
91 2 9.093730670082548 4.806265442107832 0.9056075308874143
92 1 9.093730670082547 7.024541800003755 2.716822592662244
93 1 6.61362230551458 5.915403621055793 1.811215061774829
94 2 5.7869195173252574 8.503392705267704 0.9056075308874139
95 2 8.267027881893226 7.394254526319742 -9.43689570931383e-16
96 2 3.306811152757291 7.394254526319742 -7.771561172376096e-16
97 1 3.306811152757291 14.04908360000751 5.1836451853244885
98 1 9.093730670082547 9.242818157899677 4.528037654437075
99 1 6.613622305514581 10.351956336847639 5.1836451853244885
100 1 5.786919517325258 10.721669063163626 2.7168225926622434
101 1 5.786919517325258 12.939945421059548 4.528037654437073
102 1 8.267027881893226 11.830807242111586 3.6224301235496585
103 1 3.306811152757291 11.830807242111588 3.6224301235496585
104 2 10.747136246461192 8.503392705267704 0.9056075308874139
105 1 10.747136246461192 10.721669063163626 2.7168225926622434
106 1 8.267027881893226 9.612530884215664 1.8112150617748286
107 1 23.5610294633957 36.60155990528272 15.550935555973467
108 1 10.747136246461192 12.939945421059548 4.528037654437073
109 1 8.267027881893226 14.04908360000751 5.1836451853244885
110 1 23.5610294633957 41.03811262107457 18.923365679523123
111 1 26.041137827963663 37.710698084230685 16.20654308686088
112 1 26.041137827963666 39.92897444212661 18.01775814863571
113 1 28.521246192531635 38.819836263178644 17.112150617748295
114 1 23.5610294633957 38.819836263178644 17.112150617748295
115 1 25.214435039774344 40.29868716844259 15.550935555973464
116 1 31.001354557099596 37.710698084230685 16.20654308686088
117 1 28.521246192531635 36.60155990528272 15.550935555973464
118 2 26.041137827963666 42.147250800022526 19.82897321041054
119 1 25.214435039774344 44.73523988423444 18.923365679523123
120 1 31.001354557099596 39.9289744421266 18.017758148635707
121 2 31.001354557099603 42.147250800022526 19.82897321041054
122 1 28.521246192531635 41.03811262107457 18.923365679523126
123 1 27.69454340434231 41.407825347390556 16.20654308686088
124 1 27.694543404342312 43.62610170528648 18.01775814863571
125 1 30.17465176891028 42.516963526338515 17.112150617748295
126 1 25.214435039774344 42.516963526338515 17.112150617748295
127 1 26.86784061615299 43.99581443160246 15.550935555973464
128 1 32.65476013347825 41.407825347390556 16.20654308686088
129 1 30.17465176891028 40.29868716844259 15.550935555973464
130 2 27.694543404342312 45.8443780631824 19.82897321041054
131 1 26.86784061615299 48.43236714739431 18.923365679523123
132 1 32.65476013347825 43.62610170528647 18.017758148635707
133 2 32.65476013347825 45.8443780631824 19.82897321041054
134 1 30.17465176891028 44.73523988423444 18.923365679523126
135 1 29.347948980720957 45.10495261055043 16.20654308686088
136 1 29.347948980720957 47.32322896844635 18.01775814863571
137 1 31.828057345288926 46.214090789498385 17.112150617748295
138 1 26.86784061615299 46.214090789498385 17.112150617748295
139 1 34.308165709856894 45.10495261055043 16.20654308686088
140 1 31.828057345288926 43.99581443160246 15.550935555973464
141 2 29.347948980720957 49.541505326342275 19.82897321041054
142 1 34.308165709856894 47.323228968446344 18.017758148635707
143 2 34.308165709856894 49.541505326342275 19.82897321041054
144 1 31.828057345288926 48.43236714739431 18.923365679523126
