#Lammps coordinate file for CSL - Axis: [1 1 1]  Angle: (1, 3) -> 59.99999999999999  Plane indices: [0 1 1]  z-position: [4.9336451853244885 14.800935555973464]  Repeats: 1 1 (3, 3) (black, white)  Fixed: 2.228  Boundary equiv: True
144 atoms

2 atom types

0.0 9.920433458271871 xlo xhi
0.0 11.091381789479609 ylo yhi
0.0 19.734580741297954 zlo zhi
4.9602167291359365 4.340189637993949 28.00573901843602 xy xz yz

Atoms

1 1 4.6502031835649404 8.457178614478204 5.339252716211904
2 1 9.610419912700873 8.457178614478202 5.339252716211904
3 1 7.130311548132909 9.566316793426164 6.24486024709932
4 1 9.610419912700875 10.675454972374126 7.150467777986734
5 1 12.917231065458166 12.154305877638073 5.339252716211904
6 1 4.6502031835649404 10.675454972374126 7.150467777986734
7 1 2.1700948189969735 11.784593151322088 8.05607530887415
8 2 4.6502031835649404 12.893731330270048 8.961682839761563
9 1 2.1700948189969735 9.566316793426166 6.244860247099319
10 2 9.610419912700875 12.893731330270048 8.961682839761563
11 2 7.130311548132909 14.002869509218009 9.867290370648979
12 2 9.610419912700875 15.11200768816597 10.772897901536393
13 1 7.130311548132909 11.784593151322088 8.05607530887415
14 1 7.95701433632223 12.154305877638073 5.339252716211904
15 1 5.476905971754263 13.263444056586035 6.244860247099319
16 1 7.95701433632223 14.372582235533997 7.150467777986734
17 1 12.917231065458166 14.372582235533995 7.150467777986734
18 1 10.4371227008902 15.481720414481957 8.05607530887415
19 2 12.917231065458168 16.590858593429918 8.961682839761563
20 1 10.437122700890198 13.263444056586035 6.24486024709932
21 1 11.263825489079522 15.851433140797944 5.339252716211903
22 1 13.74393385364749 16.960571319745906 6.244860247099318
23 2 4.650203183564942 15.11200768816597 10.772897901536393
24 1 2.1700948189969744 16.221145867113933 11.678505432423808
25 1 4.650203183564942 17.330284046061895 12.584112963311222
26 2 2.1700948189969744 14.00286950921801 9.867290370648979
27 1 9.610419912700877 17.330284046061895 12.584112963311222
28 1 7.1303115481329105 18.439422225009853 13.489720494198638
29 1 9.610419912700877 19.548560403957815 14.395328025086053
30 1 7.1303115481329105 16.221145867113933 11.678505432423808
31 2 7.957014336322231 16.590858593429918 8.961682839761563
32 2 5.476905971754265 17.69999677237788 9.867290370648979
33 2 7.957014336322231 18.80913495132584 10.772897901536393
34 1 5.476905971754265 15.48172041448196 8.05607530887415
35 1 6.303608759943586 15.851433140797944 5.339252716211903
36 1 6.303608759943586 18.069709498693868 7.150467777986734
37 2 12.917231065458168 18.80913495132584 10.772897901536393
38 1 10.4371227008902 19.918273130273803 11.678505432423808
39 1 12.917231065458168 21.027411309221765 12.584112963311224
40 2 10.4371227008902 17.69999677237788 9.867290370648979
41 1 11.263825489079522 18.069709498693864 7.150467777986734
42 1 8.783717124511554 19.17884767764183 8.05607530887415
43 2 11.263825489079522 20.28798585658979 8.961682839761563
44 1 8.783717124511554 16.960571319745906 6.244860247099319
45 2 13.74393385364749 21.39712403553775 9.867290370648977
46 1 13.74393385364749 19.178847677641826 8.05607530887415
47 1 4.650203183564942 19.54856040395782 14.395328025086052
48 1 2.1700948189969753 18.439422225009857 13.489720494198638
49 1 7.957014336322231 21.027411309221765 12.584112963311222
50 1 5.476905971754267 22.136549488169724 13.489720494198638
51 1 7.957014336322233 23.245687667117686 14.395328025086053
52 1 5.476905971754265 19.918273130273803 11.678505432423808
53 2 6.303608759943586 20.28798585658979 8.961682839761563
54 2 6.303608759943588 22.506262214485712 10.772897901536393
55 1 12.917231065458168 23.245687667117686 14.395328025086052
56 1 10.4371227008902 22.136549488169724 13.48972049419864
57 2 11.263825489079522 22.506262214485712 10.772897901536393
58 1 8.783717124511556 23.615400393433674 11.678505432423808
59 1 11.263825489079524 24.724538572381636 12.584112963311224
60 2 8.783717124511554 21.39712403553775 9.867290370648979
61 1 13.743933853647489 25.833676751329595 13.489720494198636
62 1 13.743933853647487 23.61540039343367 11.678505432423808
63 1 6.303608759943588 24.724538572381636 12.58411296331122
64 1 6.303608759943588 26.942814930277557 14.395328025086052
65 1 11.263825489079524 26.942814930277557 14.39532802508605
66 1 8.783717124511556 25.833676751329595 13.489720494198638
67 1 4.440892098500626e-16 2.2182763578959226 1.8112150617748295
68 2 2.480108364567968 1.109138178947961 0.9056075308874147
69 2 4.960216729135936 -4.440892098500626e-16 -1.1102230246251565e-16
70 2 0.0 0.0 0.0
71 1 4.440892098500626e-16 6.654829073687768 4.9336451853244885
72 1 2.480108364567968 3.327414536843884 2.7168225926622442
73 1 2.4801083645679682 5.545690894739806 4.528037654437074
74 1 4.960216729135936 4.436552715791845 3.622430123549659
75 1 4.440892098500626e-16 4.436552715791845 3.622430123549659
76 1 1.6534055763786455 5.915403621055795 1.811215061774829
77 2 7.440325093703903 1.109138178947961 0.9056075308874147
78 1 7.440325093703903 3.3274145368438837 2.7168225926622442
79 1 4.960216729135936 2.218276357895922 1.8112150617748295
80 2 4.133513940946613 4.806265442107833 0.9056075308874143
81 2 6.61362230551458 3.6971272631598704 -5.551115123125783e-16
82 2 1.6534055763786453 3.697127263159871 -3.3306690738754696e-16
83 1 1.6534055763786455 10.351956336847639 4.9336451853244885
84 1 7.440325093703903 5.545690894739806 4.528037654437074
85 1 4.960216729135936 6.654829073687768 4.9336451853244885
86 1 4.133513940946613 7.024541800003755 2.716822592662244
87 1 4.133513940946613 9.242818157899677 4.528037654437074
88 1 6.61362230551458 8.133679978951715 3.622430123549659
89 1 1.6534055763786457 8.133679978951717 3.622430123549659
90 1 3.3068111527572905 9.612530884215664 1.8112150617748286
91 2 9.093730670082548 4.806265442107833 0.9056075308874143
92 1 9.093730670082547 7.024541800003755 2.716822592662244
93 1 6.61362230551458 5.915403621055793 1.8112150617748286
94 2 5.7869195173252574 8.503392705267704 0.9056075308874139
95 2 8.267027881893226 7.394254526319742 -8.881784197001252e-16
96 2 3.3068111527572905 7.394254526319742 -6.661338147750939e-16
97 1 3.306811152757291 14.04908360000751 4.933645185324488
98 1 9.093730670082547 9.242818157899677 4.528037654437074
99 1 6.613622305514582 10.351956336847639 4.9336451853244885
100 1 5.786919517325258 10.721669063163626 2.7168225926622434
101 1 5.786919517325258 12.939945421059548 4.528037654437073
102 1 8.267027881893226 11.830807242111586 3.622430123549658
103 1 3.306811152757291 11.830807242111588 3.622430123549658
104 2 10.747136246461192 8.503392705267704 0.9056075308874139
105 1 10.747136246461192 10.721669063163626 2.7168225926622434
106 1 8.267027881893226 9.612530884215664 1.8112150617748286
107 1 4.340189637993945 21.350909944748256 14.800935555973467
108 1 10.747136246461192 12.939945421059548 4.528037654437073
109 1 8.267027881893226 14.04908360000751 4.933645185324488
110 1 4.340189637993945 25.7874626605401 17.923365679523123
111 1 6.820298002561913 22.460048123696218 15.20654308686088
112 1 6.820298002561914 24.678324481592142 17.01775814863571
113 1 9.300406367129881 23.56918630264418 16.112150617748295
114 1 4.340189637993945 23.56918630264418 16.112150617748295
115 1 5.99359521437259 25.048037207908127 14.800935555973464
116 1 11.780514731697847 22.460048123696218 15.20654308686088
117 1 9.300406367129881 21.350909944748256 14.800935555973464
118 2 6.820298002561914 26.896600839488062 18.82897321041054
119 1 5.993595214372591 29.48458992369997 17.923365679523123
120 1 11.780514731697847 24.67832448159214 17.017758148635707
121 2 11.78051473169785 26.896600839488062 18.82897321041054
122 1 9.300406367129881 25.7874626605401 17.923365679523126
123 1 8.473703578940558 26.15717538685609 15.20654308686088
124 1 8.47370357894056 28.375451744752013 17.01775814863571
125 1 10.953811943508526 27.26631356580405 16.112150617748295
126 1 5.993595214372591 27.26631356580405 16.112150617748295
127 1 7.647000790751235 28.745164471067998 14.800935555973464
128 1 13.433920308076495 26.15717538685609 15.20654308686088
129 1 10.953811943508526 25.048037207908127 14.800935555973464
130 2 8.47370357894056 30.593728102647933 18.82897321041054
131 1 7.647000790751237 33.181717186859835 17.923365679523123
132 1 13.433920308076495 28.37545174475201 17.017758148635707
133 2 13.433920308076495 30.593728102647933 18.82897321041054
134 1 10.953811943508526 29.48458992369997 17.923365679523126
135 1 10.127109155319204 29.85430265001596 15.20654308686088
136 1 10.127109155319205 32.072579007911884 17.01775814863571
137 1 12.607217519887172 30.963440828963922 16.112150617748295
138 1 7.647000790751237 30.963440828963922 16.112150617748295
139 1 15.08732588445514 29.85430265001596 15.20654308686088
140 1 12.607217519887172 28.745164471067998 14.800935555973464
141 2 10.127109155319205 34.2908553658078 18.82897321041054
142 1 15.08732588445514 32.07257900791188 17.017758148635707
143 2 15.08732588445514 34.2908553658078 18.82897321041054
144 1 12.607217519887172 33.181717186859835 17.923365679523126
