ITEM: TIMESTEP
110081
ITEM: NUMBER OF ATOMS
144
ITEM: BOX BOUNDS xy xz yz pp pp pp
0.0000000000000000e+00 3.9061706741945500e+01 4.9602167291359365e+00
0.0000000000000000e+00 5.2961348044765145e+01 2.4181056554537694e+01
0.0000000000000000e+00 2.4734580741297954e+01 4.1869966255285533e+01
ITEM: ATOMS id type x y z c_peatom
70 2 0 0 0 -3.37607
82 2 1.65341 3.69713 0 -3.30794
69 2 4.96022 0 0 -3.36452
81 2 6.61362 3.69713 0 -3.37478
80 2 4.13351 4.80627 0.905608 -3.29637
86 1 4.1264 6.81325 2.8842 -3.3206
88 1 6.57949 7.91589 3.87454 -3.31758
91 2 9.09373 4.80627 0.905608 -3.26894
92 1 9.06429 6.96399 2.82853 -3.26413
93 1 6.59723 5.87668 1.88034 -3.2904
94 2 5.78692 8.50339 0.905608 -3.35645
95 2 8.26703 7.39425 0 -3.38654
76 1 11.5756 5.81167 1.90179 -3.25031
89 1 11.5442 7.91642 3.79503 -3.3546
96 2 13.2272 7.39425 0 -3.37958
104 2 10.7471 8.50339 0.905608 -3.36833
98 1 9.03489 9.04051 4.81325 -3.26758
68 2 7.44033 12.2005 0.905608 -3.27515
100 1 5.73763 10.5888 2.88594 -3.23937
102 1 8.15799 11.8271 3.8282 -3.02797
106 1 8.23638 9.56867 1.93009 -3.37487
77 2 12.4005 12.2005 0.905608 -3.38214
90 1 13.196 9.53667 1.91499 -3.35518
103 1 13.149 11.6942 3.86042 -3.23053
105 1 10.6823 10.6641 2.8647 -3.33209
108 1 10.615 12.9518 4.81234 -3.12429
83 1 14.0309 8.95961 4.77346 -3.31849
72 1 8.23645 14.9952 3.66114 -3.11939
79 1 9.89505 13.2985 1.8821 -3.3034
74 1 10.6958 16.0437 4.66487 -3.20987
78 1 12.3654 14.3795 2.83097 -3.16364
67 1 14.9 13.269 1.89881 -3.10617
75 1 15.5053 16.2295 4.58192 -3.12505
21 1 8.25767 12.3508 7.23425 -2.90799
35 1 11.488 10.024 5.68026 -3.22902
2 1 9.67179 15.6233 7.52635 -3.24043
84 1 13.0835 17.234 5.66933 -3.27048
9 1 12.159 16.6902 8.55169 -3.36109
97 1 12.154 14.5284 6.71989 -3.2086
1 1 14.6522 15.6412 7.59309 -3.3231
101 1 14.5933 13.5091 5.67405 -2.98342
109 1 17.094 14.7789 6.44283 -3.03824
73 1 18.0733 17.2673 5.57564 -3.32999
3 1 17.1064 16.6739 8.52838 -3.32874
4 1 19.5767 17.7268 9.48208 -3.35479
99 1 11.5759 21.2132 5.88774 -3.08542
85 1 10.582 18.2843 6.60438 -3.36823
5 1 13.0574 19.305 7.59073 -3.27438
17 1 12.9808 21.4125 9.54432 -3.17574
6 1 14.6255 17.7077 9.52004 -3.34425
71 1 15.5813 18.2753 6.57622 -3.33266
14 1 18.0047 19.3246 7.55954 -3.37311
15 1 15.496 20.3355 8.56825 -3.26965
16 1 17.9386 21.4119 9.53 -3.35554
87 1 18.8812 22.0076 6.76914 -3.17983
20 1 20.4553 20.3451 8.58897 -3.28028
22 1 16.1719 23.0132 7.63706 -3.15203
36 1 16.2427 25.1089 9.4995 -3.26705
44 1 18.7665 24.0509 8.55736 -3.26729
41 1 21.3096 25.003 9.33144 -3.20487
7 1 12.1225 18.7805 10.4622 -3.36601
8 2 14.5706 19.8258 11.4617 -3.36965
10 2 19.5309 19.8258 11.4617 -3.35764
13 1 17.0796 18.784 10.4511 -3.34368
31 2 17.8774 23.523 11.4617 -3.36857
32 2 15.3973 24.6321 12.3673 -3.3331
33 2 17.8774 25.7412 13.2729 -3.35013
34 1 15.4375 22.4717 10.4827 -3.28495
42 1 18.7494 26.1509 10.4297 -3.36386
18 1 20.3807 22.4688 10.4869 -3.273
19 2 22.8377 23.523 11.4617 -3.27177
37 2 22.8377 25.7412 13.2729 -3.3754
40 2 20.3576 24.6321 12.3673 -3.36102
46 1 23.6754 26.1478 10.3991 -3.28086
52 1 15.3865 26.7901 14.2538 -3.37536
53 2 16.224 27.2201 11.4617 -3.35586
54 2 16.224 29.4384 13.2729 -3.35169
58 1 18.6693 30.523 14.2545 -3.36883
60 2 18.7042 28.3292 12.3673 -3.35001
38 1 20.3332 26.8246 14.2311 -3.38256
43 2 21.1843 27.2201 11.4617 -3.35049
45 2 23.6644 28.3292 12.3673 -3.36077
57 2 21.1843 29.4384 13.2729 -3.38963
62 1 23.6563 30.5319 14.2297 -3.39122
23 2 19.5309 33.1355 13.2729 -3.37246
11 2 22.011 32.0264 12.3673 -3.36065
30 1 21.9946 34.2108 14.2474 -3.35911
12 2 24.4911 33.1355 13.2729 -3.35204
24 1 26.9607 34.1925 14.2746 -3.37638
26 2 26.9712 32.0264 12.3673 -3.37257
49 1 17.8246 27.8872 15.147 -3.38458
51 1 17.8344 30.0313 17.0564 -3.17269
39 1 22.8305 27.8991 15.1107 -3.32462
56 1 20.3143 29.0179 16.0353 -3.05976
55 1 22.7914 30.0829 16.9025 -3.03205
47 1 25.2937 28.9771 16.0705 -3.38921
66 1 18.6475 32.6823 16.186 -3.26907
25 1 19.5 35.2483 15.1806 -3.37104
59 1 21.1442 31.6475 15.1286 -3.30624
61 1 23.589 32.7082 16.1326 -3.38052
65 1 21.0753 33.7489 17.1451 -3.28298
107 1 23.5594 34.7737 18.1412 -3.1822
27 1 24.4496 35.2671 15.1613 -3.34874
127 1 22.6127 32.0236 18.9275 -3.12817
50 1 25.2049 31.0901 17.9226 -3.30855
63 1 26.1004 31.6131 15.1999 -3.38731
64 1 26.0479 33.7382 17.1488 -3.2945
117 1 28.4415 34.786 18.2202 -3.17895
28 1 21.9337 36.3069 16.1251 -3.35911
116 1 20.9982 35.8695 19.1522 -3.15938
129 1 21.879 38.5182 17.9011 -3.15544
29 1 24.3875 37.433 16.9379 -2.97902
48 1 26.9286 36.3674 16.053 -3.16995
115 1 29.3568 37.392 16.9978 -3.18161
123 1 29.3105 39.6191 18.8338 -2.9678
140 1 32.5419 43.0077 19.069 -3.18073
114 1 24.1321 37.4431 21.1099 -3.03369
110 1 24.1913 39.7091 22.8611 -3.38981
111 1 26.7396 36.2929 20.1948 -2.94022
112 1 26.659 38.5709 22.0234 -3.21142
113 1 29.2349 37.4812 21.0494 -3.11501
120 1 31.6198 38.6417 22.0056 -3.23462
128 1 23.2138 40.1262 19.9775 -2.9844
122 1 29.1303 39.729 22.8683 -3.29508
139 1 25.0725 44.0372 19.9436 -3.2084
118 2 26.6612 40.7608 23.829 -3.34665
119 1 25.8384 43.3866 22.8114 -3.40447
124 1 28.3166 42.3793 21.8303 -3.28709
126 1 25.8612 41.2301 20.9442 -2.97055
121 2 31.6214 40.7608 23.829 -3.35472
125 1 30.7152 41.2765 20.8185 -3.26468
132 1 33.2748 42.275 21.8891 -3.36177
134 1 30.8053 43.3466 22.8447 -3.38393
130 2 28.3146 44.458 23.829 -3.37197
131 1 27.4911 47.0868 22.9318 -3.31134
138 1 27.5359 45.0985 20.9604 -3.25378
135 1 30.0324 44.0421 19.9936 -3.26315
133 2 33.2748 44.458 23.829 -3.39583
136 1 30.0073 45.965 22.0439 -3.29127
137 1 32.5192 44.9019 21.0935 -3.28651
141 2 29.968 48.1551 23.829 -3.40897
144 1 32.4845 47.0717 22.9266 -3.40385
142 1 34.9681 45.9928 21.9672 -3.30681
143 2 34.9282 48.1551 23.829 -3.38528
