#Lammps coordinate file for CSL - Axis: [1 1 1]  Angle: (1, 3) -> 59.99999999999999  Plane indices: [0 1 1]  z-position: [4.9336451853244885 14.800935555973464]  Repeats: 1 1 (3, 3) (black, white)  Fixed: 2.228  Boundary equiv: True
144 atoms

2 atom types

0.0 9.920433458271871 xlo xhi
0.0 11.091381789479609 ylo yhi
0.0 19.734580741297954 zlo zhi
4.9602167291359365 16.740731460833793 44.642811702655436 xy xz yz

Atoms

1 1 10.850474094984861 16.775714956587912 5.339252716211904
2 1 15.810690824120794 16.775714956587912 5.339252716211904
3 1 13.33058245955283 17.88485313553587 6.24486024709932
4 1 15.810690824120796 18.993991314483836 7.150467777986734
5 1 19.11750197687809 20.472842219747783 5.339252716211904
6 1 10.850474094984861 18.993991314483836 7.150467777986734
7 1 8.370365730416895 20.103129493431794 8.05607530887415
8 2 10.850474094984861 21.212267672379756 8.961682839761563
9 1 8.370365730416895 17.884853135535874 6.244860247099318
10 2 15.810690824120796 21.212267672379756 8.961682839761563
11 2 13.33058245955283 22.321405851327718 9.867290370648979
12 2 15.810690824120798 23.430544030275676 10.772897901536393
13 1 13.33058245955283 20.103129493431794 8.05607530887415
14 1 14.15728524774215 20.472842219747783 5.339252716211904
15 1 11.677176883174184 21.58198039869574 6.244860247099318
16 1 14.157285247742152 22.691118577643707 7.150467777986734
17 1 19.11750197687809 22.691118577643703 7.150467777986734
18 1 16.63739361231012 23.800256756591665 8.05607530887415
19 2 19.11750197687809 24.909394935539623 8.961682839761563
20 1 16.63739361231012 21.58198039869574 6.24486024709932
21 1 17.464096400499443 24.169969482907653 5.339252716211902
22 1 19.94420476506741 25.279107661855612 6.244860247099318
23 2 10.850474094984863 23.430544030275676 10.772897901536393
24 1 8.370365730416896 24.539682209223642 11.678505432423808
25 1 10.850474094984863 25.6488203881716 12.584112963311222
26 2 8.370365730416896 22.321405851327718 9.867290370648979
27 1 15.810690824120798 25.6488203881716 12.584112963311222
28 1 13.330582459552831 26.75795856711956 13.489720494198638
29 1 15.810690824120798 27.867096746067524 14.395328025086053
30 1 13.330582459552831 24.539682209223642 11.678505432423808
31 2 14.157285247742152 24.909394935539627 8.961682839761563
32 2 11.677176883174186 26.01853311448759 9.867290370648979
33 2 14.157285247742152 27.127671293435547 10.772897901536393
34 1 11.677176883174186 23.800256756591665 8.05607530887415
35 1 12.503879671363507 24.169969482907653 5.339252716211902
36 1 12.503879671363507 26.388245840803577 7.150467777986734
37 2 19.11750197687809 27.127671293435547 10.772897901536393
38 1 16.63739361231012 28.236809472383513 11.678505432423808
39 1 19.11750197687809 29.34594765133147 12.584112963311224
40 2 16.63739361231012 26.01853311448759 9.867290370648979
41 1 17.464096400499443 26.38824584080357 7.150467777986734
42 1 14.983988035931475 27.497384019751536 8.05607530887415
43 2 17.464096400499443 28.606522198699494 8.961682839761563
44 1 14.983988035931475 25.279107661855612 6.244860247099318
45 2 19.94420476506741 29.71566037764746 9.867290370648977
46 1 19.94420476506741 27.497384019751536 8.05607530887415
47 1 10.850474094984865 27.867096746067524 14.395328025086052
48 1 8.370365730416896 26.757958567119566 13.489720494198638
49 1 14.157285247742152 29.34594765133147 12.584112963311222
50 1 11.677176883174187 30.45508583027943 13.489720494198638
51 1 14.157285247742154 31.564224009227395 14.395328025086053
52 1 11.677176883174187 28.236809472383513 11.678505432423808
53 2 12.503879671363507 28.606522198699494 8.961682839761563
54 2 12.503879671363508 30.824798556595418 10.772897901536393
55 1 19.11750197687809 31.564224009227395 14.395328025086052
56 1 16.63739361231012 30.45508583027943 13.48972049419864
57 2 17.464096400499443 30.824798556595418 10.772897901536393
58 1 14.983988035931477 31.933936735543384 11.678505432423808
59 1 17.464096400499443 33.04307491449134 12.584112963311224
60 2 14.983988035931475 29.71566037764746 9.867290370648979
61 1 19.94420476506741 34.1522130934393 13.489720494198636
62 1 19.944204765067408 31.933936735543377 11.678505432423808
63 1 12.503879671363508 33.04307491449134 12.58411296331122
64 1 12.503879671363508 35.261351272387266 14.395328025086052
65 1 17.464096400499443 35.261351272387266 14.39532802508605
66 1 14.983988035931477 34.1522130934393 13.489720494198638
67 1 0.0 2.218276357895922 1.8112150617748295
68 2 2.4801083645679682 1.109138178947961 0.9056075308874145
69 2 4.960216729135936 0.0 -2.220446049250313e-16
70 2 0.0 0.0 0.0
71 1 0.0 6.654829073687768 4.9336451853244885
72 1 2.4801083645679682 3.327414536843884 2.7168225926622442
73 1 2.4801083645679682 5.545690894739806 4.528037654437073
74 1 4.960216729135936 4.436552715791845 3.6224301235496585
75 1 0.0 4.436552715791845 3.6224301235496585
76 1 1.6534055763786455 5.915403621055794 1.811215061774829
77 2 7.440325093703903 1.109138178947961 0.9056075308874143
78 1 7.440325093703903 3.327414536843884 2.7168225926622442
79 1 4.960216729135936 2.218276357895922 1.811215061774829
80 2 4.133513940946613 4.806265442107832 0.9056075308874143
81 2 6.61362230551458 3.697127263159871 -6.661338147750939e-16
82 2 1.6534055763786455 3.697127263159871 -4.440892098500626e-16
83 1 1.6534055763786455 10.351956336847639 4.9336451853244885
84 1 7.440325093703903 5.545690894739806 4.528037654437073
85 1 4.960216729135936 6.654829073687768 4.9336451853244885
86 1 4.133513940946613 7.024541800003755 2.716822592662244
87 1 4.133513940946613 9.242818157899677 4.528037654437073
88 1 6.61362230551458 8.133679978951715 3.6224301235496585
89 1 1.6534055763786455 8.133679978951717 3.6224301235496585
90 1 3.306811152757291 9.612530884215664 1.811215061774829
91 2 9.093730670082548 4.806265442107832 0.9056075308874141
92 1 9.093730670082547 7.024541800003755 2.716822592662244
93 1 6.61362230551458 5.915403621055793 1.811215061774829
94 2 5.7869195173252574 8.503392705267704 0.9056075308874139
95 2 8.267027881893226 7.394254526319742 -9.992007221626409e-16
96 2 3.306811152757291 7.394254526319742 -8.881784197001252e-16
97 1 3.306811152757291 14.04908360000751 4.933645185324487
98 1 9.093730670082547 9.242818157899677 4.528037654437073
99 1 6.613622305514581 10.351956336847639 4.9336451853244885
100 1 5.786919517325258 10.721669063163626 2.7168225926622434
101 1 5.786919517325258 12.939945421059548 4.528037654437073
102 1 8.267027881893226 11.830807242111586 3.6224301235496585
103 1 3.306811152757291 11.830807242111588 3.6224301235496585
104 2 10.747136246461192 8.503392705267704 0.9056075308874136
105 1 10.747136246461192 10.721669063163626 2.7168225926622434
106 1 8.267027881893226 9.612530884215664 1.8112150617748286
107 1 16.740731460833786 37.98798262896767 14.800935555973467
108 1 10.747136246461192 12.939945421059548 4.528037654437073
109 1 8.267027881893226 14.04908360000751 4.933645185324487
110 1 16.740731460833786 42.42453534475951 17.923365679523123
111 1 19.220839825401754 39.09712080791563 15.20654308686088
112 1 19.220839825401754 41.315397165811554 17.01775814863571
113 1 21.700948189969722 40.206258986863595 16.112150617748295
114 1 16.740731460833786 40.206258986863595 16.112150617748295
115 1 18.39413703721243 41.68510989212754 14.800935555973464
116 1 24.18105655453769 39.09712080791563 15.20654308686088
117 1 21.700948189969722 37.98798262896767 14.800935555973464
118 2 19.220839825401754 43.53367352370748 18.82897321041054
119 1 18.39413703721243 46.12166260791938 17.923365679523123
120 1 24.18105655453769 41.315397165811554 17.017758148635707
121 2 24.18105655453769 43.53367352370748 18.82897321041054
122 1 21.700948189969722 42.42453534475951 17.923365679523126
123 1 20.8742454017804 42.7942480710755 15.20654308686088
124 1 20.8742454017804 45.012524428971425 17.01775814863571
125 1 23.354353766348368 43.903386250023466 16.112150617748295
126 1 18.39413703721243 43.903386250023466 16.112150617748295
127 1 20.047542613591077 45.38223715528741 14.800935555973464
128 1 25.834462130916336 42.7942480710755 15.20654308686088
129 1 23.354353766348368 41.68510989212754 14.800935555973464
130 2 20.8742454017804 47.23080078686735 18.82897321041054
131 1 20.047542613591077 49.818789871079254 17.923365679523123
132 1 25.834462130916336 45.012524428971425 17.017758148635707
133 2 25.834462130916336 47.23080078686735 18.82897321041054
134 1 23.354353766348368 46.12166260791938 17.923365679523126
135 1 22.527650978159045 46.49137533423537 15.20654308686088
136 1 22.527650978159045 48.709651692131295 17.01775814863571
137 1 25.007759342727013 47.60051351318334 16.112150617748295
138 1 20.047542613591077 47.60051351318334 16.112150617748295
139 1 27.48786770729498 46.49137533423537 15.20654308686088
140 1 25.007759342727013 45.38223715528741 14.800935555973464
141 2 22.527650978159045 50.92792805002722 18.82897321041054
142 1 27.48786770729498 48.709651692131295 17.017758148635707
143 2 27.48786770729498 50.92792805002722 18.82897321041054
144 1 25.007759342727013 49.818789871079254 17.923365679523126
