#Lammps coordinate file for CSL - Axis: [1 1 1]  Angle: (1, 3) -> 59.99999999999999  Plane indices: [0 1 1]  z-position: [5.1836451853244885 15.550935555973464]  Repeats: 1 1 (3, 3) (black, white)  Fixed: 2.228  Boundary equiv: True
144 atoms

2 atom types

0.0 9.920433458271871 xlo xhi
0.0 11.091381789479609 ylo yhi
0.0 20.734580741297954 zlo zhi
4.9602167291359365 16.740731460833793 30.778584465805924 xy xz yz

Atoms

1 1 10.850474094984861 9.843601338163154 5.839252716211904
2 1 15.810690824120794 9.843601338163154 5.839252716211904
3 1 13.33058245955283 10.952739517111114 6.74486024709932
4 1 15.810690824120796 12.061877696059076 7.650467777986734
5 1 19.11750197687809 13.540728601323023 5.839252716211904
6 1 10.850474094984861 12.061877696059076 7.650467777986734
7 1 8.370365730416895 13.171015875007038 8.55607530887415
8 2 10.850474094984861 14.280154053954998 9.461682839761563
9 1 8.370365730416895 10.952739517111116 6.744860247099319
10 2 15.810690824120796 14.280154053954998 9.461682839761563
11 2 13.33058245955283 15.389292232902958 10.367290370648979
12 2 15.810690824120798 16.498430411850922 11.272897901536393
13 1 13.33058245955283 13.171015875007038 8.55607530887415
14 1 14.15728524774215 13.540728601323023 5.839252716211904
15 1 11.677176883174184 14.649866780270985 6.744860247099319
16 1 14.157285247742152 15.759004959218947 7.650467777986734
17 1 19.11750197687809 15.759004959218945 7.650467777986734
18 1 16.63739361231012 16.868143138166907 8.55607530887415
19 2 19.11750197687809 17.97728131711487 9.461682839761563
20 1 16.63739361231012 14.649866780270985 6.74486024709932
21 1 17.464096400499443 17.237855864482896 5.839252716211903
22 1 19.94420476506741 18.346994043430858 6.744860247099318
23 2 10.850474094984863 16.498430411850922 11.272897901536393
24 1 8.370365730416896 17.607568590798884 12.178505432423808
25 1 10.850474094984863 18.716706769746846 13.084112963311222
26 2 8.370365730416896 15.38929223290296 10.367290370648979
27 1 15.810690824120798 18.716706769746846 13.084112963311222
28 1 13.330582459552831 19.825844948694805 13.989720494198638
29 1 15.810690824120798 20.934983127642766 14.895328025086053
30 1 13.330582459552831 17.607568590798884 12.178505432423808
31 2 14.157285247742152 17.97728131711487 9.461682839761563
32 2 11.677176883174186 19.08641949606283 10.367290370648979
33 2 14.157285247742152 20.195557675010793 11.272897901536393
34 1 11.677176883174186 16.86814313816691 8.55607530887415
35 1 12.503879671363507 17.237855864482896 5.839252716211903
36 1 12.503879671363507 19.45613222237882 7.650467777986734
37 2 19.11750197687809 20.195557675010793 11.272897901536393
38 1 16.63739361231012 21.304695853958755 12.178505432423808
39 1 19.11750197687809 22.413834032906717 13.084112963311224
40 2 16.63739361231012 19.08641949606283 10.367290370648979
41 1 17.464096400499443 19.456132222378816 7.650467777986734
42 1 14.983988035931475 20.56527040132678 8.55607530887415
43 2 17.464096400499443 21.67440858027474 9.461682839761563
44 1 14.983988035931475 18.346994043430858 6.744860247099319
45 2 19.94420476506741 22.783546759222702 10.367290370648977
46 1 19.94420476506741 20.565270401326778 8.55607530887415
47 1 10.850474094984865 20.93498312764277 14.895328025086052
48 1 8.370365730416896 19.825844948694808 13.989720494198638
49 1 14.157285247742152 22.413834032906717 13.084112963311222
50 1 11.677176883174187 23.522972211854675 13.989720494198638
51 1 14.157285247742154 24.632110390802637 14.895328025086053
52 1 11.677176883174187 21.304695853958755 12.178505432423808
53 2 12.503879671363507 21.67440858027474 9.461682839761563
54 2 12.503879671363508 23.892684938170664 11.272897901536393
55 1 19.11750197687809 24.632110390802637 14.895328025086052
56 1 16.63739361231012 23.522972211854675 13.98972049419864
57 2 17.464096400499443 23.892684938170664 11.272897901536393
58 1 14.983988035931477 25.001823117118626 12.178505432423808
59 1 17.464096400499443 26.110961296066588 13.084112963311224
60 2 14.983988035931475 22.783546759222702 10.367290370648979
61 1 19.94420476506741 27.220099475014546 13.989720494198636
62 1 19.944204765067408 25.001823117118622 12.178505432423808
63 1 12.503879671363508 26.110961296066588 13.08411296331122
64 1 12.503879671363508 28.329237653962508 14.895328025086052
65 1 17.464096400499443 28.329237653962508 14.89532802508605
66 1 14.983988035931477 27.220099475014546 13.989720494198638
67 1 0.0 2.2182763578959226 1.8112150617748293
68 2 2.4801083645679682 1.109138178947961 0.9056075308874145
69 2 4.960216729135936 -4.440892098500626e-16 -1.1102230246251565e-16
70 2 0.0 0.0 0.0
71 1 0.0 6.654829073687768 5.1836451853244885
72 1 2.4801083645679682 3.327414536843884 2.7168225926622442
73 1 2.4801083645679682 5.545690894739806 4.528037654437074
74 1 4.960216729135936 4.436552715791845 3.622430123549659
75 1 0.0 4.436552715791845 3.622430123549659
76 1 1.6534055763786455 5.915403621055794 1.8112150617748293
77 2 7.440325093703903 1.109138178947961 0.9056075308874145
78 1 7.440325093703903 3.3274145368438837 2.7168225926622442
79 1 4.960216729135936 2.218276357895922 1.8112150617748293
80 2 4.133513940946613 4.806265442107832 0.9056075308874143
81 2 6.61362230551458 3.6971272631598704 -5.551115123125783e-16
82 2 1.6534055763786455 3.697127263159871 -3.3306690738754696e-16
83 1 1.6534055763786455 10.351956336847639 5.1836451853244885
84 1 7.440325093703903 5.545690894739806 4.528037654437074
85 1 4.960216729135936 6.654829073687768 5.1836451853244885
86 1 4.133513940946613 7.024541800003755 2.7168225926622442
87 1 4.133513940946613 9.242818157899677 4.528037654437074
88 1 6.61362230551458 8.133679978951715 3.622430123549659
89 1 1.6534055763786455 8.133679978951717 3.622430123549659
90 1 3.306811152757291 9.612530884215664 1.8112150617748288
91 2 9.093730670082548 4.806265442107832 0.9056075308874141
92 1 9.093730670082547 7.024541800003755 2.7168225926622442
93 1 6.61362230551458 5.915403621055793 1.8112150617748288
94 2 5.7869195173252574 8.503392705267704 0.9056075308874139
95 2 8.267027881893226 7.394254526319742 -9.43689570931383e-16
96 2 3.306811152757291 7.394254526319742 -7.216449660063518e-16
97 1 3.306811152757291 14.04908360000751 5.183645185324488
98 1 9.093730670082547 9.242818157899677 4.528037654437074
99 1 6.613622305514581 10.351956336847639 5.1836451853244885
100 1 5.786919517325258 10.721669063163626 2.7168225926622434
101 1 5.786919517325258 12.939945421059548 4.528037654437073
102 1 8.267027881893226 11.830807242111586 3.622430123549659
103 1 3.306811152757291 11.830807242111588 3.622430123549659
104 2 10.747136246461192 8.503392705267704 0.9056075308874136
105 1 10.747136246461192 10.721669063163626 2.7168225926622434
106 1 8.267027881893226 9.612530884215664 1.8112150617748284
107 1 16.740731460833786 24.12375539211816 15.550935555973467
108 1 10.747136246461192 12.939945421059548 4.528037654437073
109 1 8.267027881893226 14.04908360000751 5.183645185324488
110 1 16.740731460833786 28.560308107910004 18.923365679523123
111 1 19.220839825401754 25.23289357106612 16.20654308686088
112 1 19.220839825401754 27.451169928962045 18.01775814863571
113 1 21.700948189969722 26.342031750014083 17.112150617748295
114 1 16.740731460833786 26.342031750014083 17.112150617748295
115 1 18.39413703721243 27.82088265527803 15.550935555973464
116 1 24.18105655453769 25.23289357106612 16.20654308686088
117 1 21.700948189969722 24.12375539211816 15.550935555973464
118 2 19.220839825401754 29.669446286857966 19.82897321041054
119 1 18.39413703721243 32.257435371069874 18.923365679523123
120 1 24.18105655453769 27.45116992896204 18.017758148635707
121 2 24.18105655453769 29.669446286857966 19.82897321041054
122 1 21.700948189969722 28.560308107910004 18.923365679523126
123 1 20.8742454017804 28.930020834225992 16.20654308686088
124 1 20.8742454017804 31.148297192121916 18.01775814863571
125 1 23.354353766348368 30.039159013173954 17.112150617748295
126 1 18.39413703721243 30.039159013173954 17.112150617748295
127 1 20.047542613591077 31.5180099184379 15.550935555973464
128 1 25.834462130916336 28.930020834225992 16.20654308686088
129 1 23.354353766348368 27.82088265527803 15.550935555973464
130 2 20.8742454017804 33.36657355001783 19.82897321041054
131 1 20.047542613591077 35.95456263422974 18.923365679523123
132 1 25.834462130916336 31.148297192121913 18.017758148635707
133 2 25.834462130916336 33.36657355001783 19.82897321041054
134 1 23.354353766348368 32.257435371069874 18.923365679523126
135 1 22.527650978159045 32.62714809738586 16.20654308686088
136 1 22.527650978159045 34.84542445528178 18.01775814863571
137 1 25.007759342727013 33.73628627633382 17.112150617748295
138 1 20.047542613591077 33.73628627633382 17.112150617748295
139 1 27.48786770729498 32.62714809738586 16.20654308686088
140 1 25.007759342727013 31.5180099184379 15.550935555973464
141 2 22.527650978159045 37.063700813177704 19.82897321041054
142 1 27.48786770729498 34.84542445528178 18.017758148635707
143 2 27.48786770729498 37.063700813177704 19.82897321041054
144 1 25.007759342727013 35.95456263422974 18.923365679523126
