ITEM: TIMESTEP
0
ITEM: NUMBER OF ATOMS
144
ITEM: BOX BOUNDS xy xz yz pp pp pp
0.0000000000000000e+00 2.5421110736821674e+01 4.9602167291359365e+00
0.0000000000000000e+00 4.1869966255285533e+01 1.0540460549413869e+01
0.0000000000000000e+00 2.3734580741297954e+01 3.0778584465805924e+01
ITEM: ATOMS id type x y z c_peatom
69 2 4.96022 0 0 -3.3739
70 2 0 0 0 -3.3739
81 2 6.61362 3.69713 0 -3.3739
82 2 11.5738 3.69713 0 -3.3739
80 2 4.13351 4.80627 0.905608 -3.36817
86 1 4.13351 7.02454 2.71682 -3.3547
87 1 4.13351 9.24282 4.52804 -3.17537
88 1 6.61362 8.13368 3.62243 -3.28869
91 2 9.09373 4.80627 0.905608 -3.36817
92 1 9.09373 7.02454 2.71682 -3.3547
93 1 6.61362 5.9154 1.81122 -3.38641
94 2 5.78692 8.50339 0.905608 -3.36818
95 2 8.26703 7.39425 0 -3.3739
98 1 9.09373 9.24282 4.52804 -3.17537
76 1 11.5738 5.9154 1.81122 -3.38641
89 1 11.5738 8.13368 3.62243 -3.28869
96 2 13.2272 7.39425 0 -3.3739
104 2 10.7471 8.50339 0.905608 -3.36818
68 2 7.44033 12.2005 0.905608 -3.36818
79 1 9.92043 13.3097 1.81122 -3.38224
100 1 5.78692 10.7217 2.71682 -3.32787
101 1 5.78692 12.9399 4.52804 -3.13902
102 1 8.26703 11.8308 3.62243 -3.27523
106 1 8.26703 9.61253 1.81122 -3.38053
67 1 14.8807 13.3097 1.81122 -3.38224
77 2 12.4005 12.2005 0.905608 -3.36818
90 1 13.2272 9.61253 1.81122 -3.38053
103 1 13.2272 11.8308 3.62243 -3.27523
105 1 10.7471 10.7217 2.71682 -3.32787
108 1 10.7471 12.9399 4.52804 -3.13902
72 1 7.44033 14.4188 2.71682 -3.344
73 1 7.44033 16.6371 4.52804 -3.15933
74 1 9.92043 15.5279 3.62243 -3.30597
75 1 14.8807 15.5279 3.62243 -3.30597
78 1 12.4005 14.4188 2.71682 -3.344
84 1 12.4005 16.6371 4.52804 -3.15933
1 1 7.75034 9.8436 7.33925 -2.40464
5 1 6.09693 13.5407 7.33925 -3.08336
6 1 7.75034 12.0619 9.15047 -3.3507
9 1 5.27023 10.9527 8.24486 -3.22916
99 1 6.61362 10.352 5.93365 -2.32246
2 1 12.7106 9.8436 7.33925 -2.40464
3 1 10.2304 10.9527 8.24486 -3.22916
4 1 12.7106 12.0619 9.15047 -3.3507
14 1 11.0571 13.5407 7.33925 -3.08336
83 1 11.5738 10.352 5.93365 -2.32246
15 1 8.57704 14.6499 8.24486 -3.07193
17 1 6.09693 15.759 9.15047 -3.34927
35 1 9.40374 17.2379 7.33925 -1.75288
85 1 9.92043 17.7462 5.93365 -1.70203
109 1 8.26703 14.0491 5.93365 -2.86424
16 1 11.0571 15.759 9.15047 -3.34927
20 1 13.5373 14.6499 8.24486 -3.07193
21 1 14.364 17.2379 7.33925 -1.75288
44 1 11.8839 18.347 8.24486 -3.26544
71 1 14.8807 17.7462 5.93365 -1.70203
97 1 13.2272 14.0491 5.93365 -2.86424
22 1 16.8441 18.347 8.24486 -3.26544
36 1 9.40374 19.4561 9.15047 -3.3776
41 1 14.364 19.4561 9.15047 -3.3776
7 1 5.27023 13.171 10.0561 -3.37662
13 1 10.2304 13.171 10.0561 -3.37662
8 2 7.75034 14.2802 10.9617 -3.37981
34 1 8.57704 16.8681 10.0561 -3.39278
10 2 12.7106 14.2802 10.9617 -3.37981
18 1 13.5373 16.8681 10.0561 -3.39278
31 2 11.0571 17.9773 10.9617 -3.37743
19 2 16.0174 17.9773 10.9617 -3.37743
32 2 8.57704 19.0864 11.8673 -3.37311
52 1 8.57704 21.3047 13.6785 -3.40552
53 2 9.40374 21.6744 10.9617 -3.37407
33 2 11.0571 20.1956 12.7729 -3.37407
38 1 13.5373 21.3047 13.6785 -3.40552
40 2 13.5373 19.0864 11.8673 -3.37311
42 1 11.8839 20.5653 10.0561 -3.40552
43 2 14.364 21.6744 10.9617 -3.37407
60 2 11.8839 22.7835 11.8673 -3.37311
37 2 16.0174 20.1956 12.7729 -3.37407
45 2 16.8441 22.7835 11.8673 -3.37311
46 1 16.8441 20.5653 10.0561 -3.40552
54 2 9.40374 23.8927 12.7729 -3.37743
11 2 15.1907 26.4807 11.8673 -3.37507
23 2 12.7106 27.5898 12.7729 -3.37981
26 2 10.2304 26.4807 11.8673 -3.37507
57 2 14.364 23.8927 12.7729 -3.37743
58 1 11.8839 25.0018 13.6785 -3.39278
12 2 17.6708 27.5898 12.7729 -3.37981
62 1 16.8441 25.0018 13.6785 -3.39278
30 1 15.1907 28.699 13.6785 -3.37662
24 1 20.1509 28.699 13.6785 -3.37662
49 1 11.0571 22.4138 14.5841 -3.3776
39 1 16.0174 22.4138 14.5841 -3.3776
50 1 8.57704 23.523 15.4897 -3.26544
51 1 11.0571 24.6321 16.3953 -1.75288
56 1 13.5373 23.523 15.4897 -3.26544
59 1 14.364 26.111 14.5841 -3.34927
66 1 11.8839 27.2201 15.4897 -3.07193
107 1 10.5405 24.1238 17.8009 -1.70203
115 1 12.1939 27.8209 17.8009 -2.86424
55 1 16.0174 24.6321 16.3953 -1.75288
61 1 16.8441 27.2201 15.4897 -3.07193
63 1 19.3242 26.111 14.5841 -3.34927
117 1 15.5007 24.1238 17.8009 -1.70203
129 1 17.1541 27.8209 17.8009 -2.86424
25 1 12.7106 29.8081 14.5841 -3.3507
28 1 15.1907 30.9172 15.4897 -3.22916
47 1 12.7106 32.0264 16.3953 -2.40464
65 1 14.364 28.3292 16.3953 -3.08336
127 1 13.8473 31.518 17.8009 -2.32246
27 1 17.6708 29.8081 14.5841 -3.3507
29 1 17.6708 32.0264 16.3953 -2.40464
48 1 20.1509 30.9172 15.4897 -3.22916
64 1 19.3242 28.3292 16.3953 -3.08336
140 1 18.8075 31.518 17.8009 -2.32246
111 1 13.0206 25.2329 19.2065 -3.15933
112 1 13.0206 27.4512 21.0178 -3.344
114 1 10.5405 26.342 20.1122 -3.30597
113 1 15.5007 26.342 20.1122 -3.30597
116 1 17.9808 25.2329 19.2065 -3.15933
120 1 17.9808 27.4512 21.0178 -3.344
110 1 10.5405 28.5603 21.9234 -3.38224
118 2 13.0206 29.6694 22.829 -3.36818
119 1 12.1939 32.2574 21.9234 -3.38053
123 1 14.674 28.93 19.2065 -3.13902
124 1 14.674 31.1483 21.0178 -3.32787
126 1 12.1939 30.0392 20.1122 -3.27523
121 2 17.9808 29.6694 22.829 -3.36818
122 1 15.5007 28.5603 21.9234 -3.38224
125 1 17.1541 30.0392 20.1122 -3.27523
128 1 19.6342 28.93 19.2065 -3.13902
132 1 19.6342 31.1483 21.0178 -3.32787
134 1 17.1541 32.2574 21.9234 -3.38053
130 2 14.674 33.3666 22.829 -3.36818
131 1 13.8473 35.9546 21.9234 -3.38641
138 1 13.8473 33.7363 20.1122 -3.28869
133 2 19.6342 33.3666 22.829 -3.36818
135 1 16.3274 32.6271 19.2065 -3.17537
136 1 16.3274 34.8454 21.0178 -3.3547
137 1 18.8075 33.7363 20.1122 -3.28869
141 2 16.3274 37.0637 22.829 -3.36817
144 1 18.8075 35.9546 21.9234 -3.38641
139 1 21.2876 32.6271 19.2065 -3.17537
142 1 21.2876 34.8454 21.0178 -3.3547
143 2 21.2876 37.0637 22.829 -3.36817
