ITEM: TIMESTEP
100000
ITEM: NUMBER OF ATOMS
144
ITEM: BOX BOUNDS xy xz yz pp pp pp
0.0000000000000000e+00 3.2241408739383594e+01 4.9602167291359365e+00
0.0000000000000000e+00 5.7120616215819993e+01 1.7360758551975785e+01
0.0000000000000000e+00 2.0734580741297954e+01 4.6029234426340381e+01
ITEM: ATOMS id type x y z c_peatom
70 2 0 0 0 -3.36128
69 2 4.96022 4.92923e-16 0 -3.36128
81 2 6.61362 3.69713 0 -3.3376
82 2 11.5738 3.69713 0 -3.3376
80 2 4.13351 4.80627 0.905608 -3.31962
86 1 4.3213 6.89481 2.38888 -3.1446
88 1 6.82407 7.87123 3.27773 -3.23362
91 2 9.09373 4.80627 0.905608 -3.31962
93 1 6.6948 5.69147 1.85578 -3.28719
94 2 5.78692 8.50339 0.905608 -3.28904
95 2 8.26703 7.39425 0 -3.3376
92 1 9.28151 6.89481 2.38888 -3.1446
76 1 11.655 5.69147 1.85578 -3.28719
89 1 11.7843 7.87123 3.27773 -3.23362
96 2 13.2272 7.39425 0 -3.3376
104 2 10.7471 8.50339 0.905608 -3.28904
68 2 7.44033 12.2005 0.905608 -3.32247
100 1 5.91685 10.5709 2.56194 -3.27414
101 1 5.99466 12.4959 4.33445 -3.28782
102 1 8.43426 11.5318 3.49497 -3.32681
106 1 8.32069 9.56253 1.65949 -3.34306
77 2 12.4005 12.2005 0.905608 -3.32247
90 1 13.2809 9.56253 1.65949 -3.34306
103 1 13.3945 11.5318 3.49497 -3.32681
105 1 10.8771 10.5709 2.56194 -3.27414
108 1 10.9549 12.4959 4.33445 -3.28782
72 1 7.42812 14.1931 2.66492 -3.2557
73 1 7.11229 15.6751 4.80076 -3.14162
74 1 9.75264 15.3095 3.60676 -3.34336
78 1 12.3883 14.1931 2.66492 -3.2557
79 1 9.91593 13.2371 1.76306 -3.35217
84 1 12.0725 15.6751 4.80076 -3.14162
67 1 14.8761 13.2371 1.76306 -3.35217
75 1 14.7129 15.3095 3.60676 -3.34336
85 1 8.62147 17.6211 4.77327 -2.95881
87 1 9.41213 19.9961 4.14313 -3.23996
99 1 11.9321 20.7809 5.11719 -3.27067
71 1 13.5817 17.6211 4.77327 -2.95881
98 1 14.3723 19.9961 4.14313 -3.23996
83 1 16.8923 20.7809 5.11719 -3.27067
109 1 8.53251 13.3947 5.43946 -3.34706
97 1 13.4927 13.3947 5.43946 -3.34706
44 1 9.69781 15.9188 6.39796 -3.08021
22 1 14.658 15.9188 6.39796 -3.08021
7 1 8.67913 20.898 8.68305 -3.31076
9 1 8.68833 18.9327 6.9301 -3.28637
1 1 11.1322 18.1275 5.85833 -3.31513
3 1 13.6485 18.9327 6.9301 -3.28637
5 1 9.48539 21.6878 6.06368 -3.27004
6 1 11.1662 19.9019 7.76946 -3.29585
8 2 11.1605 21.9055 9.46168 -3.34582
13 1 13.6393 20.898 8.68305 -3.31076
2 1 16.0924 18.1275 5.85833 -3.31513
4 1 16.1264 19.9019 7.76946 -3.29585
10 2 16.1207 21.9055 9.46168 -3.34582
14 1 14.4456 21.6878 6.06368 -3.27004
35 1 11.042 24.9845 6.49217 -2.98348
15 1 11.9967 22.5512 6.96206 -3.26354
17 1 9.47793 23.4786 7.91132 -3.18126
34 1 12.035 24.541 8.79482 -3.2223
21 1 16.0022 24.9845 6.49217 -2.98348
16 1 14.4381 23.4786 7.91132 -3.18126
18 1 16.9952 24.541 8.79482 -3.2223
20 1 16.9569 22.5512 6.96206 -3.26354
31 2 14.4673 25.6026 9.46168 -3.32001
19 2 19.4275 25.6026 9.46168 -3.32001
36 1 12.4314 27.1881 7.6255 -3.29047
53 2 12.8139 29.2997 9.46168 -3.3381
41 1 17.3916 27.1881 7.6255 -3.29047
42 1 15.2016 28.3196 8.65123 -3.26372
43 2 17.7741 29.2997 9.46168 -3.3381
46 1 20.1618 28.3196 8.65123 -3.26372
32 2 11.9872 26.7117 10.3673 -3.3098
52 1 12.0796 28.801 12.0834 -3.26372
33 2 14.4673 27.8209 11.2729 -3.3381
38 1 17.0398 28.801 12.0834 -3.26372
40 2 16.9474 26.7117 10.3673 -3.3098
49 1 14.8498 29.9325 13.1091 -3.29047
60 2 15.294 30.4089 10.3673 -3.3098
37 2 19.4275 27.8209 11.2729 -3.3381
39 1 19.81 29.9325 13.1091 -3.29047
45 2 20.2542 30.4089 10.3673 -3.3098
26 2 13.6406 34.106 10.3673 -3.25478
54 2 12.8139 31.518 11.2729 -3.32001
57 2 17.7741 31.518 11.2729 -3.32001
58 1 15.2462 32.5796 11.9398 -3.2223
59 1 17.8033 33.642 12.8233 -3.18126
66 1 15.2845 34.5694 13.7725 -3.26354
51 1 16.2392 32.1361 14.2424 -2.98348
11 2 18.6008 34.106 10.3673 -3.25478
61 1 20.2447 34.5694 13.7725 -3.26354
62 1 20.2064 32.5796 11.9398 -3.2223
63 1 22.7635 33.642 12.8233 -3.18126
55 1 21.1994 32.1361 14.2424 -2.98348
23 2 16.1207 35.2151 11.2729 -3.34582
25 1 16.115 37.2187 12.9651 -3.29585
65 1 17.7958 35.4328 14.6709 -3.27004
47 1 16.149 38.9931 14.8763 -3.31513
12 2 21.0809 35.2151 11.2729 -3.34582
27 1 21.0752 37.2187 12.9651 -3.29585
28 1 18.5929 38.1879 13.8045 -3.28637
30 1 18.6021 36.2226 12.0515 -3.31076
64 1 22.756 35.4328 14.6709 -3.27004
29 1 21.1093 38.9931 14.8763 -3.31513
24 1 23.5623 36.2226 12.0515 -3.31076
48 1 23.5531 38.1879 13.8045 -3.28637
50 1 17.5834 41.2019 14.3366 -3.08021
56 1 22.5436 41.2019 14.3366 -3.08021
115 1 18.7487 43.7259 15.2951 -3.34706
129 1 23.7089 43.7259 15.2951 -3.34706
127 1 15.3491 36.3397 15.6174 -3.27067
135 1 17.8691 37.1245 16.5915 -3.23996
107 1 18.6597 39.4995 15.9613 -2.95881
140 1 20.3093 36.3397 15.6174 -3.27067
139 1 22.8293 37.1245 16.5915 -3.23996
117 1 23.6199 39.4995 15.9613 -2.95881
110 1 17.3653 43.8835 18.9715 -3.35217
114 1 17.5285 41.8111 17.1278 -3.34336
111 1 20.1689 41.4455 15.9338 -3.14162
112 1 19.8531 42.9275 18.0697 -3.2557
113 1 22.4888 41.8111 17.1278 -3.34336
122 1 22.3255 43.8835 18.9715 -3.35217
116 1 25.1291 41.4455 15.9338 -3.14162
120 1 24.8133 42.9275 18.0697 -3.2557
118 2 19.8409 44.9201 19.829 -3.32247
119 1 18.9605 47.5581 19.0751 -3.34306
123 1 21.2865 44.6248 16.4001 -3.28782
124 1 21.3643 46.5497 18.1726 -3.27414
126 1 18.8469 45.5889 17.2396 -3.32681
121 2 24.8011 44.9201 19.829 -3.32247
125 1 23.8072 45.5889 17.2396 -3.32681
128 1 26.2468 44.6248 16.4001 -3.28782
132 1 26.3246 46.5497 18.1726 -3.27414
134 1 23.9207 47.5581 19.0751 -3.34306
130 2 21.4943 48.6172 19.829 -3.28904
131 1 20.5864 51.4291 18.8788 -3.28719
138 1 20.4571 49.2494 17.4568 -3.23362
136 1 22.9599 50.2258 18.3457 -3.1446
133 2 26.4545 48.6172 19.829 -3.28904
137 1 25.4173 49.2494 17.4568 -3.23362
141 2 23.1477 52.3144 19.829 -3.31962
144 1 25.5466 51.4291 18.8788 -3.28719
142 1 27.9201 50.2258 18.3457 -3.1446
143 2 28.1079 52.3144 19.829 -3.31962
