#Lammps coordinate file for CSL - Axis: [1 1 1]  Angle: (1, 3) -> 59.99999999999999  Plane indices: [0 1 1]  z-position: [6.1836451853244885 18.550935555973464]  Repeats: 1 1 (3, 3) (black, white)  Fixed: 2.228  Boundary equiv: True
144 atoms

2 atom types

0.0 9.920433458271871 xlo xhi
0.0 11.091381789479609 ylo yhi
0.0 24.734580741297954 zlo zhi
4.9602167291359365 1.8600812734259813 28.00573901843602 xy xz yz

Atoms

1 1 3.410149001280957 8.457178614478204 7.839252716211904
2 1 8.37036573041689 8.457178614478202 7.839252716211904
3 1 5.890257365848925 9.566316793426164 8.74486024709932
4 1 8.370365730416891 10.675454972374126 9.650467777986734
5 1 11.677176883174182 12.154305877638073 7.839252716211904
6 1 3.4101490012809568 10.675454972374126 9.650467777986734
7 1 0.9300406367129899 11.784593151322088 10.55607530887415
8 2 3.410149001280957 12.893731330270048 11.461682839761563
9 1 0.9300406367129899 9.566316793426166 8.744860247099318
10 2 8.370365730416891 12.893731330270048 11.461682839761563
11 2 5.8902573658489255 14.002869509218009 12.367290370648979
12 2 8.370365730416893 15.11200768816597 13.272897901536393
13 1 5.890257365848925 11.784593151322088 10.55607530887415
14 1 6.7169601540382455 12.154305877638073 7.839252716211904
15 1 4.23685178947028 13.263444056586035 8.744860247099318
16 1 6.716960154038246 14.372582235533997 9.650467777986734
17 1 11.677176883174182 14.372582235533995 9.650467777986734
18 1 9.197068518606216 15.481720414481957 10.55607530887415
19 2 11.677176883174184 16.590858593429918 11.461682839761563
20 1 9.197068518606214 13.263444056586035 8.74486024709932
21 1 10.023771306795538 15.851433140797944 7.839252716211903
22 1 12.503879671363507 16.960571319745906 8.744860247099318
23 2 3.410149001280958 15.11200768816597 13.272897901536393
24 1 0.9300406367129908 16.221145867113933 14.178505432423808
25 1 3.410149001280958 17.330284046061895 15.084112963311222
26 2 0.9300406367129908 14.00286950921801 12.367290370648979
27 1 8.370365730416893 17.330284046061895 15.084112963311222
28 1 5.890257365848926 18.439422225009853 15.989720494198638
29 1 8.370365730416893 19.548560403957815 16.89532802508605
30 1 5.890257365848926 16.221145867113933 14.178505432423808
31 2 6.716960154038247 16.590858593429918 11.461682839761563
32 2 4.236851789470281 17.69999677237788 12.367290370648979
33 2 6.716960154038247 18.80913495132584 13.272897901536393
34 1 4.236851789470281 15.48172041448196 10.55607530887415
35 1 5.063554577659602 15.851433140797944 7.839252716211903
36 1 5.063554577659602 18.069709498693868 9.650467777986734
37 2 11.677176883174184 18.80913495132584 13.272897901536393
38 1 9.197068518606216 19.918273130273803 14.178505432423808
39 1 11.677176883174184 21.027411309221765 15.084112963311224
40 2 9.197068518606216 17.69999677237788 12.367290370648979
41 1 10.023771306795538 18.069709498693864 9.650467777986734
42 1 7.54366294222757 19.17884767764183 10.55607530887415
43 2 10.023771306795538 20.28798585658979 11.461682839761563
44 1 7.54366294222757 16.960571319745906 8.744860247099318
45 2 12.503879671363507 21.39712403553775 12.367290370648977
46 1 12.503879671363507 19.178847677641826 10.55607530887415
47 1 3.410149001280959 19.54856040395782 16.89532802508605
48 1 0.9300406367129916 18.439422225009857 15.989720494198638
49 1 6.716960154038248 21.027411309221765 15.084112963311222
50 1 4.236851789470283 22.136549488169724 15.989720494198638
51 1 6.716960154038249 23.245687667117686 16.89532802508605
52 1 4.236851789470282 19.918273130273803 14.178505432423808
53 2 5.063554577659603 20.28798585658979 11.461682839761563
54 2 5.063554577659604 22.506262214485712 13.272897901536393
55 1 11.677176883174184 23.245687667117686 16.89532802508605
56 1 9.197068518606216 22.136549488169724 15.98972049419864
57 2 10.023771306795538 22.506262214485712 13.272897901536393
58 1 7.543662942227572 23.615400393433674 14.178505432423808
59 1 10.02377130679554 24.724538572381636 15.084112963311224
60 2 7.543662942227571 21.39712403553775 12.367290370648979
61 1 12.503879671363505 25.833676751329595 15.989720494198636
62 1 12.503879671363503 23.61540039343367 14.178505432423808
63 1 5.063554577659604 24.724538572381636 15.08411296331122
64 1 5.063554577659604 26.942814930277557 16.89532802508605
65 1 10.02377130679554 26.942814930277557 16.89532802508605
66 1 7.543662942227572 25.833676751329595 15.989720494198638
67 1 2.220446049250313e-16 2.2182763578959226 1.8112150617748295
68 2 2.480108364567968 1.109138178947961 0.9056075308874146
69 2 4.960216729135936 -4.440892098500626e-16 -2.220446049250313e-16
70 2 0.0 0.0 0.0
71 1 4.440892098500626e-16 6.654829073687768 6.1836451853244885
72 1 2.480108364567968 3.327414536843884 2.7168225926622442
73 1 2.4801083645679682 5.545690894739806 4.528037654437074
74 1 4.960216729135936 4.436552715791845 3.622430123549659
75 1 4.440892098500626e-16 4.436552715791845 3.622430123549659
76 1 1.6534055763786455 5.915403621055794 1.811215061774829
77 2 7.440325093703903 1.109138178947961 0.9056075308874145
78 1 7.440325093703903 3.3274145368438837 2.7168225926622442
79 1 4.960216729135936 2.218276357895922 1.8112150617748293
80 2 4.133513940946613 4.806265442107832 0.9056075308874143
81 2 6.61362230551458 3.6971272631598704 -4.440892098500626e-16
82 2 1.6534055763786453 3.697127263159871 -4.440892098500626e-16
83 1 1.6534055763786455 10.351956336847639 6.1836451853244885
84 1 7.440325093703903 5.545690894739806 4.528037654437074
85 1 4.960216729135936 6.654829073687768 6.1836451853244885
86 1 4.133513940946613 7.024541800003755 2.716822592662244
87 1 4.133513940946613 9.242818157899677 4.528037654437074
88 1 6.61362230551458 8.133679978951715 3.6224301235496585
89 1 1.6534055763786457 8.133679978951717 3.6224301235496585
90 1 3.3068111527572905 9.612530884215664 1.8112150617748288
91 2 9.093730670082548 4.806265442107832 0.9056075308874142
92 1 9.093730670082547 7.024541800003755 2.716822592662244
93 1 6.61362230551458 5.915403621055793 1.8112150617748288
94 2 5.7869195173252574 8.503392705267704 0.9056075308874139
95 2 8.267027881893226 7.394254526319742 -8.881784197001252e-16
96 2 3.3068111527572905 7.394254526319742 -6.661338147750939e-16
97 1 3.306811152757291 14.04908360000751 6.183645185324488
98 1 9.093730670082547 9.242818157899677 4.528037654437074
99 1 6.613622305514581 10.351956336847639 6.1836451853244885
100 1 5.786919517325258 10.721669063163626 2.7168225926622434
101 1 5.786919517325258 12.939945421059548 4.528037654437073
102 1 8.267027881893226 11.830807242111586 3.622430123549658
103 1 3.306811152757291 11.830807242111588 3.622430123549658
104 2 10.747136246461192 8.503392705267704 0.9056075308874137
105 1 10.747136246461192 10.721669063163626 2.7168225926622434
106 1 8.267027881893226 9.612530884215664 1.8112150617748286
107 1 1.860081273425978 21.350909944748256 18.550935555973467
108 1 10.747136246461192 12.939945421059548 4.528037654437073
109 1 8.267027881893226 14.04908360000751 6.183645185324488
110 1 1.860081273425978 25.7874626605401 22.923365679523123
111 1 4.340189637993944 22.460048123696218 20.20654308686088
112 1 4.340189637993946 24.678324481592142 22.01775814863571
113 1 6.820298002561913 23.56918630264418 21.112150617748295
114 1 1.860081273425978 23.56918630264418 21.112150617748295
115 1 3.5134868498046226 25.048037207908127 18.550935555973464
116 1 9.300406367129881 22.460048123696218 20.20654308686088
117 1 6.820298002561913 21.350909944748256 18.550935555973464
118 2 4.340189637993946 26.896600839488062 23.82897321041054
119 1 3.5134868498046234 29.48458992369997 22.923365679523123
120 1 9.300406367129881 24.67832448159214 22.017758148635707
121 2 9.300406367129881 26.896600839488062 23.82897321041054
122 1 6.8202980025619135 25.7874626605401 22.923365679523126
123 1 5.99359521437259 26.15717538685609 20.20654308686088
124 1 5.993595214372592 28.375451744752013 22.01775814863571
125 1 8.473703578940558 27.26631356580405 21.112150617748295
126 1 3.5134868498046234 27.26631356580405 21.112150617748295
127 1 5.166892426183268 28.745164471067998 18.550935555973464
128 1 10.953811943508526 26.15717538685609 20.20654308686088
129 1 8.473703578940558 25.048037207908127 18.550935555973464
130 2 5.993595214372592 30.593728102647933 23.82897321041054
131 1 5.166892426183269 33.181717186859835 22.923365679523123
132 1 10.953811943508526 28.37545174475201 22.017758148635707
133 2 10.953811943508526 30.593728102647933 23.82897321041054
134 1 8.473703578940558 29.48458992369997 22.923365679523126
135 1 7.647000790751235 29.85430265001596 20.20654308686088
136 1 7.647000790751237 32.072579007911884 22.01775814863571
137 1 10.127109155319204 30.963440828963922 21.112150617748295
138 1 5.166892426183269 30.963440828963922 21.112150617748295
139 1 12.607217519887172 29.85430265001596 20.20654308686088
140 1 10.127109155319204 28.745164471067998 18.550935555973464
141 2 7.647000790751237 34.2908553658078 23.82897321041054
142 1 12.607217519887172 32.07257900791188 22.017758148635707
143 2 12.607217519887172 34.2908553658078 23.82897321041054
144 1 10.127109155319204 33.181717186859835 22.923365679523126
