#Lammps coordinate file for CSL - Axis: [1 1 1]  Angle: (1, 3) -> 59.99999999999999  Plane indices: [0 1 1]  z-position: [4.9336451853244885 14.800935555973464]  Repeats: 1 1 (3, 3) (black, white)  Fixed: 2.228  Boundary equiv: True
144 atoms

2 atom types

0.0 9.920433458271871 xlo xhi
0.0 11.091381789479609 ylo yhi
0.0 19.734580741297954 zlo zhi
4.9602167291359365 15.500677278549807 33.551429913175824 xy xz yz

Atoms

1 1 10.230447003842869 11.230024061848106 5.339252716211904
2 1 15.190663732978802 11.230024061848106 5.339252716211904
3 1 12.710555368410837 12.339162240796066 6.24486024709932
4 1 15.190663732978804 13.448300419744028 7.150467777986734
5 1 18.497474885736096 14.927151325007975 5.339252716211904
6 1 10.230447003842869 13.448300419744028 7.150467777986734
7 1 7.7503386392749025 14.55743859869199 8.05607530887415
8 2 10.230447003842869 15.66657677763995 8.961682839761563
9 1 7.7503386392749025 12.339162240796067 6.244860247099319
10 2 15.190663732978804 15.66657677763995 8.961682839761563
11 2 12.710555368410837 16.775714956587912 9.867290370648979
12 2 15.190663732978805 17.88485313553587 10.772897901536393
13 1 12.710555368410837 14.55743859869199 8.05607530887415
14 1 13.537258156600158 14.927151325007975 5.339252716211904
15 1 11.057149792032192 16.036289503955935 6.244860247099319
16 1 13.53725815660016 17.1454276829039 7.150467777986734
17 1 18.497474885736096 17.145427682903897 7.150467777986734
18 1 16.017366521168128 18.25456586185186 8.05607530887415
19 2 18.497474885736096 19.363704040799817 8.961682839761563
20 1 16.017366521168128 16.036289503955935 6.24486024709932
21 1 16.84406930935745 18.624278588167847 5.339252716211903
22 1 19.32417767392542 19.733416767115806 6.244860247099318
23 2 10.23044700384287 17.88485313553587 10.772897901536393
24 1 7.750338639274903 18.993991314483836 11.678505432423808
25 1 10.23044700384287 20.103129493431794 12.584112963311222
26 2 7.750338639274903 16.775714956587912 9.867290370648979
27 1 15.190663732978805 20.103129493431794 12.584112963311222
28 1 12.710555368410839 21.212267672379753 13.489720494198638
29 1 15.190663732978805 22.321405851327718 14.395328025086053
30 1 12.710555368410839 18.993991314483836 11.678505432423808
31 2 13.53725815660016 19.36370404079982 8.961682839761563
32 2 11.057149792032194 20.472842219747783 9.867290370648979
33 2 13.53725815660016 21.58198039869574 10.772897901536393
34 1 11.057149792032194 18.25456586185186 8.05607530887415
35 1 11.883852580221514 18.624278588167847 5.339252716211903
36 1 11.883852580221514 20.84255494606377 7.150467777986734
37 2 18.497474885736096 21.58198039869574 10.772897901536393
38 1 16.017366521168128 22.691118577643707 11.678505432423808
39 1 18.497474885736096 23.800256756591665 12.584112963311224
40 2 16.017366521168128 20.472842219747783 9.867290370648979
41 1 16.84406930935745 20.842554946063764 7.150467777986734
42 1 14.363960944789483 21.95169312501173 8.05607530887415
43 2 16.84406930935745 23.060831303959688 8.961682839761563
44 1 14.363960944789483 19.733416767115806 6.244860247099319
45 2 19.32417767392542 24.169969482907653 9.867290370648977
46 1 19.32417767392542 21.95169312501173 8.05607530887415
47 1 10.230447003842873 22.321405851327718 14.395328025086052
48 1 7.750338639274904 21.21226767237976 13.489720494198638
49 1 13.53725815660016 23.800256756591665 12.584112963311222
50 1 11.057149792032195 24.909394935539623 13.489720494198638
51 1 13.537258156600162 26.01853311448759 14.395328025086053
52 1 11.057149792032195 22.691118577643707 11.678505432423808
53 2 11.883852580221514 23.060831303959688 8.961682839761563
54 2 11.883852580221516 25.279107661855612 10.772897901536393
55 1 18.497474885736096 26.01853311448759 14.395328025086052
56 1 16.017366521168128 24.909394935539623 13.48972049419864
57 2 16.84406930935745 25.279107661855612 10.772897901536393
58 1 14.363960944789484 26.388245840803577 11.678505432423808
59 1 16.84406930935745 27.497384019751536 12.584112963311224
60 2 14.363960944789483 24.169969482907653 9.867290370648979
61 1 19.32417767392542 28.606522198699494 13.489720494198636
62 1 19.324177673925416 26.38824584080357 11.678505432423808
63 1 11.883852580221516 27.497384019751536 12.58411296331122
64 1 11.883852580221516 29.71566037764746 14.395328025086052
65 1 16.84406930935745 29.71566037764746 14.39532802508605
66 1 14.363960944789484 28.606522198699494 13.489720494198638
67 1 0.0 2.2182763578959226 1.8112150617748293
68 2 2.4801083645679682 1.109138178947961 0.9056075308874145
69 2 4.960216729135936 -4.440892098500626e-16 -2.220446049250313e-16
70 2 0.0 0.0 0.0
71 1 0.0 6.654829073687768 4.9336451853244885
72 1 2.4801083645679682 3.327414536843884 2.7168225926622442
73 1 2.4801083645679682 5.545690894739806 4.528037654437074
74 1 4.960216729135936 4.436552715791845 3.622430123549659
75 1 0.0 4.436552715791845 3.622430123549659
76 1 1.6534055763786455 5.915403621055794 1.8112150617748293
77 2 7.440325093703903 1.109138178947961 0.9056075308874145
78 1 7.440325093703903 3.3274145368438837 2.7168225926622442
79 1 4.960216729135936 2.218276357895922 1.8112150617748293
80 2 4.133513940946613 4.806265442107832 0.9056075308874143
81 2 6.61362230551458 3.6971272631598704 -5.551115123125783e-16
82 2 1.6534055763786455 3.697127263159871 -3.3306690738754696e-16
83 1 1.6534055763786455 10.351956336847639 4.9336451853244885
84 1 7.440325093703903 5.545690894739806 4.528037654437074
85 1 4.960216729135936 6.654829073687768 4.9336451853244885
86 1 4.133513940946613 7.024541800003755 2.7168225926622442
87 1 4.133513940946613 9.242818157899677 4.528037654437074
88 1 6.61362230551458 8.133679978951715 3.622430123549659
89 1 1.6534055763786455 8.133679978951717 3.622430123549659
90 1 3.306811152757291 9.612530884215664 1.8112150617748288
91 2 9.093730670082548 4.806265442107832 0.9056075308874141
92 1 9.093730670082547 7.024541800003755 2.7168225926622442
93 1 6.61362230551458 5.915403621055793 1.8112150617748288
94 2 5.7869195173252574 8.503392705267704 0.9056075308874139
95 2 8.267027881893226 7.394254526319742 -8.881784197001252e-16
96 2 3.306811152757291 7.394254526319742 -7.771561172376096e-16
97 1 3.306811152757291 14.04908360000751 4.933645185324488
98 1 9.093730670082547 9.242818157899677 4.528037654437074
99 1 6.613622305514581 10.351956336847639 4.9336451853244885
100 1 5.786919517325258 10.721669063163626 2.7168225926622434
101 1 5.786919517325258 12.939945421059548 4.528037654437073
102 1 8.267027881893226 11.830807242111586 3.622430123549659
103 1 3.306811152757291 11.830807242111588 3.622430123549659
104 2 10.747136246461192 8.503392705267704 0.9056075308874136
105 1 10.747136246461192 10.721669063163626 2.7168225926622434
106 1 8.267027881893226 9.612530884215664 1.8112150617748284
107 1 15.500677278549803 26.89660083948806 14.800935555973467
108 1 10.747136246461192 12.939945421059548 4.528037654437073
109 1 8.267027881893226 14.04908360000751 4.933645185324488
110 1 15.500677278549803 31.3331535552799 17.923365679523123
111 1 17.98078564311777 28.005739018436017 15.20654308686088
112 1 17.98078564311777 30.22401537633194 17.01775814863571
113 1 20.460894007685738 29.114877197383983 16.112150617748295
114 1 15.500677278549803 29.114877197383983 16.112150617748295
115 1 17.154082854928447 30.59372810264793 14.800935555973464
116 1 22.941002372253706 28.005739018436017 15.20654308686088
117 1 20.460894007685738 26.89660083948806 14.800935555973464
118 2 17.98078564311777 32.442291734227865 18.82897321041054
119 1 17.154082854928447 35.03028081843977 17.923365679523123
120 1 22.941002372253706 30.22401537633194 17.017758148635707
121 2 22.941002372253706 32.442291734227865 18.82897321041054
122 1 20.460894007685738 31.3331535552799 17.923365679523126
123 1 19.634191219496415 31.702866281595888 15.20654308686088
124 1 19.634191219496415 33.92114263949181 17.01775814863571
125 1 22.114299584064383 32.812004460543854 16.112150617748295
126 1 17.154082854928447 32.812004460543854 16.112150617748295
127 1 18.807488431307092 34.2908553658078 14.800935555973464
128 1 24.59440794863235 31.702866281595888 15.20654308686088
129 1 22.114299584064383 30.59372810264793 14.800935555973464
130 2 19.634191219496415 36.139418997387736 18.82897321041054
131 1 18.807488431307092 38.72740808159964 17.923365679523123
132 1 24.59440794863235 33.92114263949181 17.017758148635707
133 2 24.59440794863235 36.139418997387736 18.82897321041054
134 1 22.114299584064383 35.03028081843977 17.923365679523126
135 1 21.28759679587506 35.39999354475576 15.20654308686088
136 1 21.28759679587506 37.61826990265168 17.01775814863571
137 1 23.76770516044303 36.509131723703725 16.112150617748295
138 1 18.807488431307092 36.509131723703725 16.112150617748295
139 1 26.247813525010997 35.39999354475576 15.20654308686088
140 1 23.76770516044303 34.2908553658078 14.800935555973464
141 2 21.28759679587506 39.83654626054761 18.82897321041054
142 1 26.247813525010997 37.61826990265168 17.017758148635707
143 2 26.247813525010997 39.83654626054761 18.82897321041054
144 1 23.76770516044303 38.72740808159964 17.923365679523126
