#Lammps coordinate file for CSL - Axis: [1 1 1]  Angle: (1, 3) -> 59.99999999999999  Plane indices: [0 1 1]  z-position: [5.1836451853244885 15.550935555973464]  Repeats: 1 1 (3, 3) (black, white)  Fixed: 2.228  Boundary equiv: True
144 atoms

2 atom types

0.0 9.920433458271871 xlo xhi
0.0 11.091381789479609 ylo yhi
0.0 20.734580741297954 zlo zhi
4.9602167291359365 5.580243820277934 33.551429913175824 xy xz yz

Atoms

1 1 5.270230274706933 11.230024061848106 5.839252716211904
2 1 10.230447003842865 11.230024061848106 5.839252716211904
3 1 7.750338639274901 12.339162240796067 6.74486024709932
4 1 10.230447003842867 13.44830041974403 7.650467777986734
5 1 13.537258156600158 14.927151325007976 5.839252716211904
6 1 5.2702302747069325 13.44830041974403 7.650467777986734
7 1 2.790121910138966 14.557438598691991 8.55607530887415
8 2 5.270230274706933 15.66657677763995 9.461682839761563
9 1 2.790121910138966 12.339162240796067 6.744860247099319
10 2 10.230447003842867 15.66657677763995 9.461682839761563
11 2 7.750338639274902 16.775714956587912 10.367290370648979
12 2 10.230447003842869 17.884853135535874 11.272897901536393
13 1 7.750338639274901 14.557438598691991 8.55607530887415
14 1 8.577041427464222 14.927151325007976 5.839252716211904
15 1 6.096933062896256 16.03628950395594 6.744860247099319
16 1 8.577041427464223 17.1454276829039 7.650467777986734
17 1 13.537258156600158 17.145427682903897 7.650467777986734
18 1 11.057149792032192 18.25456586185186 8.55607530887415
19 2 13.53725815660016 19.36370404079982 9.461682839761563
20 1 11.05714979203219 16.03628950395594 6.74486024709932
21 1 11.883852580221514 18.624278588167847 5.839252716211903
22 1 14.363960944789483 19.73341676711581 6.744860247099318
23 2 5.270230274706934 17.884853135535874 11.272897901536393
24 1 2.790121910138967 18.993991314483836 12.178505432423808
25 1 5.270230274706934 20.103129493431798 13.084112963311222
26 2 2.790121910138967 16.775714956587912 10.367290370648979
27 1 10.230447003842869 20.103129493431798 13.084112963311222
28 1 7.7503386392749025 21.212267672379756 13.989720494198638
29 1 10.230447003842869 22.321405851327718 14.895328025086053
30 1 7.7503386392749025 18.993991314483836 12.178505432423808
31 2 8.577041427464223 19.36370404079982 9.461682839761563
32 2 6.096933062896257 20.472842219747783 10.367290370648979
33 2 8.577041427464223 21.581980398695745 11.272897901536393
34 1 6.096933062896257 18.254565861851862 8.55607530887415
35 1 6.923635851085578 18.624278588167847 5.839252716211903
36 1 6.923635851085578 20.84255494606377 7.650467777986734
37 2 13.53725815660016 21.581980398695745 11.272897901536393
38 1 11.057149792032192 22.691118577643707 12.178505432423808
39 1 13.53725815660016 23.80025675659167 13.084112963311224
40 2 11.057149792032192 20.472842219747783 10.367290370648979
41 1 11.883852580221514 20.842554946063768 7.650467777986734
42 1 9.403744215653546 21.951693125011733 8.55607530887415
43 2 11.883852580221514 23.06083130395969 9.461682839761563
44 1 9.403744215653546 19.73341676711581 6.744860247099319
45 2 14.363960944789483 24.169969482907653 10.367290370648977
46 1 14.363960944789483 21.95169312501173 8.55607530887415
47 1 5.270230274706935 22.32140585132772 14.895328025086052
48 1 2.790121910138968 21.21226767237976 13.989720494198638
49 1 8.577041427464223 23.80025675659167 13.084112963311222
50 1 6.096933062896259 24.909394935539627 13.989720494198638
51 1 8.577041427464225 26.01853311448759 14.895328025086053
52 1 6.096933062896258 22.691118577643707 12.178505432423808
53 2 6.923635851085579 23.06083130395969 9.461682839761563
54 2 6.92363585108558 25.279107661855615 11.272897901536393
55 1 13.53725815660016 26.01853311448759 14.895328025086052
56 1 11.057149792032192 24.909394935539627 13.98972049419864
57 2 11.883852580221514 25.279107661855615 11.272897901536393
58 1 9.403744215653548 26.388245840803577 12.178505432423808
59 1 11.883852580221516 27.49738401975154 13.084112963311224
60 2 9.403744215653546 24.169969482907653 10.367290370648979
61 1 14.363960944789481 28.606522198699498 13.989720494198636
62 1 14.36396094478948 26.388245840803574 12.178505432423808
63 1 6.92363585108558 27.49738401975154 13.08411296331122
64 1 6.92363585108558 29.71566037764746 14.895328025086052
65 1 11.883852580221516 29.71566037764746 14.89532802508605
66 1 9.403744215653548 28.606522198699498 13.989720494198638
67 1 0.0 2.2182763578959226 1.8112150617748295
68 2 2.480108364567968 1.109138178947961 0.9056075308874146
69 2 4.960216729135936 -4.440892098500626e-16 -1.6653345369377348e-16
70 2 0.0 0.0 0.0
71 1 4.440892098500626e-16 6.654829073687768 5.1836451853244885
72 1 2.480108364567968 3.327414536843884 2.7168225926622442
73 1 2.4801083645679682 5.545690894739806 4.528037654437074
74 1 4.960216729135936 4.436552715791845 3.622430123549659
75 1 4.440892098500626e-16 4.436552715791845 3.622430123549659
76 1 1.6534055763786455 5.915403621055794 1.8112150617748295
77 2 7.440325093703903 1.109138178947961 0.9056075308874146
78 1 7.440325093703903 3.3274145368438837 2.7168225926622442
79 1 4.960216729135936 2.218276357895922 1.8112150617748295
80 2 4.133513940946613 4.806265442107832 0.9056075308874142
81 2 6.61362230551458 3.6971272631598704 -5.551115123125783e-16
82 2 1.6534055763786453 3.697127263159871 -3.885780586188048e-16
83 1 1.6534055763786455 10.351956336847639 5.1836451853244885
84 1 7.440325093703903 5.545690894739806 4.528037654437074
85 1 4.960216729135936 6.654829073687768 5.1836451853244885
86 1 4.133513940946613 7.024541800003755 2.716822592662244
87 1 4.133513940946613 9.242818157899677 4.528037654437074
88 1 6.61362230551458 8.133679978951715 3.622430123549659
89 1 1.6534055763786457 8.133679978951717 3.622430123549659
90 1 3.3068111527572905 9.612530884215664 1.811215061774829
91 2 9.093730670082548 4.806265442107832 0.9056075308874142
92 1 9.093730670082547 7.024541800003755 2.716822592662244
93 1 6.61362230551458 5.915403621055793 1.811215061774829
94 2 5.7869195173252574 8.503392705267704 0.9056075308874137
95 2 8.267027881893226 7.394254526319742 -9.43689570931383e-16
96 2 3.3068111527572905 7.394254526319742 -7.771561172376096e-16
97 1 3.306811152757291 14.04908360000751 5.183645185324488
98 1 9.093730670082547 9.242818157899677 4.528037654437074
99 1 6.613622305514581 10.351956336847639 5.1836451853244885
100 1 5.786919517325258 10.721669063163626 2.7168225926622434
101 1 5.786919517325258 12.939945421059548 4.528037654437073
102 1 8.267027881893226 11.830807242111586 3.622430123549658
103 1 3.306811152757291 11.83080724211159 3.622430123549658
104 2 10.747136246461192 8.503392705267704 0.9056075308874137
105 1 10.747136246461192 10.721669063163626 2.7168225926622434
106 1 8.267027881893226 9.612530884215664 1.8112150617748286
107 1 5.58024382027793 26.896600839488062 15.550935555973467
108 1 10.747136246461192 12.939945421059548 4.528037654437073
109 1 8.267027881893226 14.04908360000751 5.183645185324488
110 1 5.58024382027793 31.333153555279907 18.923365679523123
111 1 8.060352184845897 28.005739018436024 16.20654308686088
112 1 8.060352184845899 30.22401537633195 18.01775814863571
113 1 10.540460549413865 29.114877197383986 17.112150617748295
114 1 5.58024382027793 29.114877197383986 17.112150617748295
115 1 7.233649396656575 30.593728102647933 15.550935555973464
116 1 13.020568913981833 28.005739018436024 16.20654308686088
117 1 10.540460549413865 26.896600839488062 15.550935555973464
118 2 8.060352184845899 32.442291734227865 19.82897321041054
119 1 7.233649396656576 35.03028081843978 18.923365679523123
120 1 13.020568913981833 30.224015376331945 18.017758148635707
121 2 13.020568913981833 32.442291734227865 19.82897321041054
122 1 10.540460549413865 31.333153555279907 18.923365679523126
123 1 9.713757761224542 31.702866281595895 16.20654308686088
124 1 9.713757761224544 33.92114263949182 18.01775814863571
125 1 12.19386612579251 32.812004460543854 17.112150617748295
126 1 7.233649396656576 32.812004460543854 17.112150617748295
127 1 8.88705497303522 34.2908553658078 15.550935555973464
128 1 14.673974490360479 31.702866281595895 16.20654308686088
129 1 12.19386612579251 30.593728102647933 15.550935555973464
130 2 9.713757761224544 36.139418997387736 19.82897321041054
131 1 8.887054973035221 38.72740808159964 18.923365679523123
132 1 14.673974490360479 33.92114263949181 18.017758148635707
133 2 14.673974490360479 36.139418997387736 19.82897321041054
134 1 12.19386612579251 35.03028081843978 18.923365679523126
135 1 11.367163337603188 35.399993544755766 16.20654308686088
136 1 11.36716333760319 37.61826990265168 18.01775814863571
137 1 13.847271702171156 36.509131723703725 17.112150617748295
138 1 8.887054973035221 36.509131723703725 17.112150617748295
139 1 16.327380066739124 35.399993544755766 16.20654308686088
140 1 13.847271702171156 34.2908553658078 15.550935555973464
141 2 11.36716333760319 39.83654626054761 19.82897321041054
142 1 16.327380066739124 37.61826990265168 18.017758148635707
143 2 16.327380066739124 39.83654626054761 19.82897321041054
144 1 13.847271702171156 38.72740808159964 18.923365679523126
