ITEM: TIMESTEP
110069
ITEM: NUMBER OF ATOMS
144
ITEM: BOX BOUNDS xy xz yz pp pp pp
0.0000000000000000e+00 2.6661164919105659e+01 4.9602167291359365e+00
0.0000000000000000e+00 5.0188502597395242e+01 1.1780514731697853e+01
0.0000000000000000e+00 1.9734580741297954e+01 3.9097120807915630e+01
ITEM: ATOMS id type x y z c_peatom
70 2 0 0 0 -3.30761
69 2 4.96022 0 0 -3.29647
81 2 6.61362 3.69713 0 -3.30615
82 2 11.5738 3.69713 0 -3.25651
80 2 4.13351 4.80627 0.905608 -3.26633
86 1 4.23917 6.74748 2.46982 -3.18918
87 1 4.53074 8.70566 4.00879 -3.18979
88 1 6.85833 7.71897 3.23483 -3.20543
93 1 6.65088 5.77129 1.61106 -3.25835
94 2 5.78692 8.50339 0.905608 -3.24773
95 2 8.26703 7.39425 0 -3.30378
76 1 11.6178 5.73659 1.62693 -3.24653
89 1 11.7895 7.70381 3.25908 -3.19508
91 2 9.09373 4.80627 0.905608 -3.27097
92 1 9.2082 6.77569 2.45981 -3.18114
96 2 13.2272 7.39425 0 -3.28414
104 2 10.7471 8.50339 0.905608 -3.33101
98 1 9.50221 8.75905 4.01654 -3.15154
68 2 7.44033 12.2005 0.905608 -3.32816
100 1 5.93256 10.3727 2.41249 -3.01498
101 1 6.17706 12.2005 3.78989 -2.8619
102 1 8.61705 11.7545 3.55714 -3.25114
106 1 8.35762 9.56882 1.72638 -3.32512
99 1 7.22714 9.72433 4.77648 -3.21614
77 2 12.4005 12.2005 0.905608 -3.27803
79 1 9.95555 13.2156 1.67318 -3.27265
105 1 10.853 10.6351 2.63257 -3.32769
108 1 11.0456 12.8638 4.41744 -3.32656
90 1 13.2286 9.42436 1.62698 -3.22803
83 1 12.1754 9.66933 4.87263 -3.15504
103 1 13.4165 11.3019 3.20081 -3.04831
67 1 14.8717 13.2116 1.65689 -3.31258
97 1 13.7547 13.1333 4.50115 -2.8334
72 1 7.51937 14.244 2.62303 -3.32092
73 1 7.43813 16.2449 4.25129 -3.29475
74 1 10.0156 15.2486 3.36024 -3.21461
78 1 12.4345 14.2503 2.46692 -3.2077
84 1 12.4277 16.2023 4.1739 -3.24329
75 1 14.9346 15.254 3.36193 -3.28798
109 1 6.31511 13.908 5.32017 -2.86563
6 1 8.5986 16.2988 7.23883 -3.26449
7 1 5.96099 17.5534 8.29778 -3.15919
9 1 6.18279 15.7064 6.77196 -2.96159
1 1 8.76698 14.0866 5.42505 -3.20607
5 1 7.1618 18.1945 5.89134 -3.20047
85 1 9.82163 17.2159 5.0154 -3.19255
3 1 11.0612 15.1902 6.34371 -3.3284
13 1 10.877 17.384 8.13579 -3.33947
14 1 12.1053 18.219 5.81877 -3.15777
71 1 14.7473 17.2509 5.02423 -3.25516
2 1 13.7137 14.7163 6.08347 -2.89501
4 1 13.4271 16.5538 7.42622 -3.06633
8 2 8.37037 18.4394 8.96168 -3.32398
10 2 13.3306 18.4394 8.96168 -3.26751
15 1 9.44982 19.1974 6.63259 -3.17901
16 1 11.7895 20.1925 7.38346 -3.1815
31 2 11.6772 22.1365 8.96168 -3.26651
34 1 9.22698 21.186 8.24518 -3.23621
35 1 9.85562 21.7787 5.63092 -3.27868
44 1 12.4761 22.799 6.38934 -3.31853
21 1 14.8727 21.785 5.69205 -3.18708
17 1 16.7605 20.1947 7.41817 -3.17277
18 1 14.1771 21.1968 8.24975 -3.24062
19 2 16.6374 22.1365 8.96168 -3.26128
20 1 14.4174 19.2247 6.6286 -3.20231
22 1 17.4475 22.852 6.47113 -3.26082
36 1 10.0084 23.753 7.32886 -3.27301
42 1 12.5186 24.8119 8.10774 -3.34854
53 2 10.0238 25.8337 8.96168 -3.33056
41 1 15.0272 23.7806 7.32102 -3.2301
43 2 14.984 25.8337 8.96168 -3.29554
46 1 17.4551 24.8205 8.26545 -3.26109
32 2 9.19707 23.2457 9.86729 -3.29758
33 2 11.6772 24.3548 10.7729 -3.28841
49 1 11.6403 26.4071 12.387 -3.23631
52 1 9.19572 25.367 11.556 -3.34067
60 2 12.5039 26.9428 9.86729 -3.30386
37 2 16.6374 24.3548 10.7729 -3.32996
38 1 14.1194 25.3789 11.538 -3.2766
39 1 16.5915 26.4036 12.4873 -3.31786
40 2 14.1573 23.2457 9.86729 -3.29575
45 2 17.4641 26.9428 9.86729 -3.29315
50 1 9.2205 27.4109 13.2951 -3.30832
23 2 13.3306 31.7491 10.7729 -3.25898
26 2 10.8505 30.6399 9.86729 -3.28089
51 1 11.8171 28.4303 14.0305 -3.19182
54 2 10.0238 28.052 10.7729 -3.2567
58 1 12.4693 29.0178 11.4555 -3.23967
66 1 12.231 30.9887 13.0881 -3.19991
56 1 14.1258 27.4046 13.2363 -3.22077
11 2 15.8107 30.6399 9.86729 -3.30703
57 2 14.984 28.052 10.7729 -3.26375
59 1 14.8746 29.9937 12.3306 -3.17925
61 1 17.2272 30.9573 13.1371 -3.20005
62 1 17.4319 28.9742 11.5219 -3.24923
63 1 19.8234 30.0325 12.3116 -3.17097
12 2 18.2908 31.7491 10.7729 -3.33073
25 1 13.1414 33.6508 12.2864 -3.06237
47 1 12.8636 35.473 13.7424 -2.93685
107 1 11.8978 32.9638 14.6851 -3.24964
65 1 14.553 31.9629 13.8742 -3.21078
28 1 15.5784 34.519 13.0232 -2.99462
30 1 15.7879 32.6591 11.4773 -3.201
115 1 15.2311 36.2546 14.4008 -2.7984
117 1 16.865 32.9531 14.7502 -3.19385
64 1 19.5076 32.0373 13.8772 -3.17035
24 1 20.6695 32.7851 11.5504 -3.31121
27 1 18.1503 33.8731 12.4785 -3.30161
48 1 20.4048 34.9043 13.3193 -3.23293
29 1 17.9725 36.1026 14.2761 -3.33274
55 1 21.7226 39.4652 14.1716 -3.28473
114 1 11.7258 34.9281 16.3221 -3.29728
111 1 14.2679 33.9144 15.544 -3.29749
112 1 14.2536 35.9265 17.2127 -3.27297
113 1 16.6681 35.0009 16.3823 -3.25672
116 1 19.2048 33.9783 15.5635 -3.22052
120 1 19.1368 35.9427 17.2036 -3.21173
110 1 11.7631 36.9834 17.964 -3.34455
128 1 12.9042 37.2014 15.3215 -2.85075
126 1 13.284 39.0097 16.6212 -2.89175
119 1 13.3792 40.8112 18.1715 -3.13181
127 1 14.5226 40.5444 14.8744 -3.19296
118 2 14.2606 37.988 18.829 -3.29595
122 1 16.7426 36.9928 18.1267 -3.26068
123 1 15.6341 37.91 15.8414 -2.95615
124 1 15.8649 39.7751 17.2624 -3.13238
140 1 19.4173 40.485 14.8879 -3.14268
129 1 20.3711 37.1146 15.136 -3.20873
121 2 19.2208 37.988 18.829 -3.28325
125 1 18.2276 38.4416 16.1832 -3.33636
132 1 20.7089 39.4681 17.0332 -3.30383
134 1 18.4059 40.6143 17.9952 -3.34939
135 1 17.1857 41.4834 15.7023 -3.14201
130 2 15.914 41.6851 18.829 -3.28177
131 1 15.0519 44.4407 18.1213 -3.24825
136 1 17.4574 43.4238 17.2755 -3.17117
138 1 14.8596 42.4851 16.489 -3.21135
141 2 17.5674 45.3822 18.829 -3.26162
133 2 20.8742 41.6851 18.829 -3.33189
137 1 19.8228 42.4504 16.4979 -3.18358
144 1 20.0157 44.4271 18.1201 -3.24756
139 1 22.1197 41.4517 15.7644 -3.18487
142 1 22.4136 43.4425 17.2745 -3.18425
143 2 22.5277 45.3822 18.829 -3.27514
