LAMMPS (29 Aug 2024 - Update 2)
#---------------------------------------------------------------------------------------------------
# Initilise important features of simulation
#---------------------------------------------------------------------------------------------------
units 		metal	# Use metals units (Ang, ps, eV, bar, etc.)
dimension 	3		# Run the simulation in three dimensions
boundary 	p p p	# Use periodic boundaries in all three dimensions
atom_style 	atomic	#
#box tilt large		# Allow larger than normal tilt factors

variable T_start equal 600
variable T_end equal 200
variable tstep equal 0.002
timestep ${tstep}
timestep 0.002

read_data   lammps.txt	# Read in atom coordinates from a file
Reading data file ...
  triclinic box = (0 0 0) to (9.9204335 11.091382 19.734581) with tilt (4.9602167 13.020569 33.55143)
WARNING: Triclinic box skew is large. LAMMPS will run inefficiently. (src/domain.cpp:221)
  1 by 1 by 1 MPI processor grid
  reading atoms ...
  144 atoms
  read_data CPU = 0.001 seconds

#---------------------------------------------------------------------------------------------------
# Define how the forces between the atoms will be modelled
#---------------------------------------------------------------------------------------------------
pair_style eam/alloy
pair_coeff * * Zope-Ti-Al-2003.eam.alloy.txt Al Al

#---------------------------------------------------------------------------------------------------
# Set behaviour of simulation
#---------------------------------------------------------------------------------------------------
group g_fixed type 2
36 atoms in group g_fixed
group g_other type 1
108 atoms in group g_other
fix f_freeze g_fixed setforce 0.0 0.0 0.0 	# Hold atoms of type 2 fixed in place
#fix f_constrain g_other setforce 0.0 0.0 NULL 	# All atoms of type 1 to move only in z direction

#---------------------------------------------------------------------------------------------------
# Specify what information to write out
#---------------------------------------------------------------------------------------------------
thermo_style custom step atoms temp pe ke etotal fmax
thermo_modify format 6 %20.10f
thermo 1000

#compute statom all stress/atom NULL
compute peatom all pe/atom
dump 1 all custom 100000 dump.* id type x y z c_peatom
dump_modify 1 first yes


#---------------------------------------------------------------------------------------------------
# Initial relaxation
#---------------------------------------------------------------------------------------------------
velocity all set 0.0 0.0 0.0

min_style 	cg
min_modify dmax 0.1
minimize 	0.0 1.0e-6 10000 100000
Neighbor list info ...
  update: every = 1 steps, delay = 0 steps, check = yes
  max neighbors/atom: 2000, page size: 100000
  master list distance cutoff = 8.724884
  ghost atom cutoff = 8.724884
  binsize = 4.362442, bins = 7 11 5
  1 neighbor lists, perpetual/occasional/extra = 1 0 0
  (1) pair eam/alloy, perpetual
      attributes: half, newton on
      pair build: half/bin/atomonly/newton/tri
      stencil: half/bin/3d/tri
      bin: standard
Per MPI rank memory allocation (min/avg/max) = 4.706 | 4.706 | 4.706 Mbytes
   Step        Atoms         Temp          PotEng         KinEng         TotEng          Fmax     
         0         144   0             -416.07442      0                  -416.0744222554  6.4173227    
        59         144   0             -467.01673      0                  -467.0167338693  1.3829247e-07
Loop time of 0.0120445 on 1 procs for 59 steps with 144 atoms

99.4% CPU use with 1 MPI tasks x no OpenMP threads

Minimization stats:
  Stopping criterion = force tolerance
  Energy initial, next-to-last, final = 
     -416.074422255441  -467.016733869329  -467.016733869328
  Force two-norm initial, final = 38.772663 8.4617555e-07
  Force max component initial, final = 6.4173227 1.3829247e-07
  Final line search alpha, max atom move = 1 1.3829247e-07
  Iterations, force evaluations = 59 108

MPI task timing breakdown:
Section |  min time  |  avg time  |  max time  |%varavg| %total
---------------------------------------------------------------
Pair    | 0.010538   | 0.010538   | 0.010538   |   0.0 | 87.49
Neigh   | 0.00047796 | 0.00047796 | 0.00047796 |   0.0 |  3.97
Comm    | 0.00058871 | 0.00058871 | 0.00058871 |   0.0 |  4.89
Output  | 0          | 0          | 0          |   0.0 |  0.00
Modify  | 1.5126e-05 | 1.5126e-05 | 1.5126e-05 |   0.0 |  0.13
Other   |            | 0.000425   |            |       |  3.53

Nlocal:            144 ave         144 max         144 min
Histogram: 1 0 0 0 0 0 0 0 0 0
Nghost:           3092 ave        3092 max        3092 min
Histogram: 1 0 0 0 0 0 0 0 0 0
Neighs:          13114 ave       13114 max       13114 min
Histogram: 1 0 0 0 0 0 0 0 0 0

Total # of neighbors = 13114
Ave neighs/atom = 91.069444
Neighbor list builds = 1
Dangerous builds = 0
#---------------------------------------------------------------------------------------------------
# Anneal boundary structures
#---------------------------------------------------------------------------------------------------
reset_timestep 100000
fix md g_other nvt temp ${T_start} ${T_end} $(100.0*v_tstep)
fix md g_other nvt temp 600 ${T_end} $(100.0*v_tstep)
fix md g_other nvt temp 600 200 $(100.0*v_tstep)
fix md g_other nvt temp 600 200 0.2000000000000000111

velocity all create ${T_start} 4928459 rot yes mom yes dist gaussian
velocity all create 600 4928459 rot yes mom yes dist gaussian
run 10000
Per MPI rank memory allocation (min/avg/max) = 4.962 | 4.962 | 4.962 Mbytes
   Step        Atoms         Temp          PotEng         KinEng         TotEng          Fmax     
    100000         144   600           -467.01673      11.09052           -455.9262134283  1.3829249e-07
    101000         144   585.94321     -459.3254       10.830692          -448.4947058509  1.273122     
    102000         144   615.51051     -458.78044      11.37722           -447.4032213637  1.4254448    
    103000         144   518.08343     -459.68864      9.5763582          -450.1122816832  1.3829156    
    104000         144   522.6213      -460.98827      9.660237           -451.3280280390  1.7184988    
    105000         144   467.89561     -461.39443      8.6486763          -452.7457557578  1.3237793    
    106000         144   478.4591      -461.0439       8.843934           -452.1999640735  1.2526815    
    107000         144   425.7733      -461.92827      7.8700792          -454.0581915666  1.4700781    
    108000         144   411.96273     -462.87942      7.6148018          -455.2646162337  1.2672155    
    109000         144   358.9216      -463.81286      6.634379           -457.1784799158  1.2581568    
    110000         144   311.88383     -464.29224      5.7649234          -458.5273202978  1.135315     
Loop time of 0.993065 on 1 procs for 10000 steps with 144 atoms

Performance: 1740.067 ns/day, 0.014 hours/ns, 10069.832 timesteps/s, 1.450 Matom-step/s
99.8% CPU use with 1 MPI tasks x no OpenMP threads

MPI task timing breakdown:
Section |  min time  |  avg time  |  max time  |%varavg| %total
---------------------------------------------------------------
Pair    | 0.8984     | 0.8984     | 0.8984     |   0.0 | 90.47
Neigh   | 0.017195   | 0.017195   | 0.017195   |   0.0 |  1.73
Comm    | 0.053995   | 0.053995   | 0.053995   |   0.0 |  5.44
Output  | 6.9916e-05 | 6.9916e-05 | 6.9916e-05 |   0.0 |  0.01
Modify  | 0.010751   | 0.010751   | 0.010751   |   0.0 |  1.08
Other   |            | 0.01266    |            |       |  1.27

Nlocal:            144 ave         144 max         144 min
Histogram: 1 0 0 0 0 0 0 0 0 0
Nghost:           3138 ave        3138 max        3138 min
Histogram: 1 0 0 0 0 0 0 0 0 0
Neighs:          13075 ave       13075 max       13075 min
Histogram: 1 0 0 0 0 0 0 0 0 0

Total # of neighbors = 13075
Ave neighs/atom = 90.798611
Neighbor list builds = 35
Dangerous builds = 0
unfix md

#---------------------------------------------------------------------------------------------------
# Final relaxation
#---------------------------------------------------------------------------------------------------
velocity all set 0.0 0.0 0.0

min_style 	cg
min_modify dmax 0.1
minimize 	0.0 1.0e-6 10000 100000
Per MPI rank memory allocation (min/avg/max) = 6.087 | 6.087 | 6.087 Mbytes
   Step        Atoms         Temp          PotEng         KinEng         TotEng          Fmax     
    110000         144   0             -464.29224      0                  -464.2922436886  1.135315     
    110064         144   0             -467.08567      0                  -467.0856678698  1.7258203e-07
Loop time of 0.01359 on 1 procs for 64 steps with 144 atoms

98.3% CPU use with 1 MPI tasks x no OpenMP threads

Minimization stats:
  Stopping criterion = force tolerance
  Energy initial, next-to-last, final = 
     -464.292243688632  -467.085667869763  -467.085667869764
  Force two-norm initial, final = 5.6451386 9.294176e-07
  Force max component initial, final = 1.135315 1.7258203e-07
  Final line search alpha, max atom move = 1 1.7258203e-07
  Iterations, force evaluations = 64 126

MPI task timing breakdown:
Section |  min time  |  avg time  |  max time  |%varavg| %total
---------------------------------------------------------------
Pair    | 0.012287   | 0.012287   | 0.012287   |   0.0 | 90.41
Neigh   | 0          | 0          | 0          |   0.0 |  0.00
Comm    | 0.00066814 | 0.00066814 | 0.00066814 |   0.0 |  4.92
Output  | 0          | 0          | 0          |   0.0 |  0.00
Modify  | 1.7085e-05 | 1.7085e-05 | 1.7085e-05 |   0.0 |  0.13
Other   |            | 0.0006174  |            |       |  4.54

Nlocal:            144 ave         144 max         144 min
Histogram: 1 0 0 0 0 0 0 0 0 0
Nghost:           3124 ave        3124 max        3124 min
Histogram: 1 0 0 0 0 0 0 0 0 0
Neighs:          13139 ave       13139 max       13139 min
Histogram: 1 0 0 0 0 0 0 0 0 0

Total # of neighbors = 13139
Ave neighs/atom = 91.243056
Neighbor list builds = 0
Dangerous builds = 0

Total wall time: 0:00:01
