LAMMPS (29 Aug 2024 - Update 2)
#---------------------------------------------------------------------------------------------------
# Initilise important features of simulation
#---------------------------------------------------------------------------------------------------
units 		metal	# Use metals units (Ang, ps, eV, bar, etc.)
dimension 	3		# Run the simulation in three dimensions
boundary 	p p p	# Use periodic boundaries in all three dimensions
atom_style 	atomic	#
#box tilt large		# Allow larger than normal tilt factors

variable T_start equal 600
variable T_end equal 200
variable tstep equal 0.002
timestep ${tstep}
timestep 0.002

read_data   lammps.txt	# Read in atom coordinates from a file
Reading data file ...
  triclinic box = (0 0 0) to (9.9204335 11.091382 24.734581) with tilt (4.9602167 7.4403251 37.710698)
WARNING: Triclinic box skew is large. LAMMPS will run inefficiently. (src/domain.cpp:221)
  1 by 1 by 1 MPI processor grid
  reading atoms ...
  144 atoms
  read_data CPU = 0.001 seconds

#---------------------------------------------------------------------------------------------------
# Define how the forces between the atoms will be modelled
#---------------------------------------------------------------------------------------------------
pair_style eam/alloy
pair_coeff * * Zope-Ti-Al-2003.eam.alloy.txt Al Al

#---------------------------------------------------------------------------------------------------
# Set behaviour of simulation
#---------------------------------------------------------------------------------------------------
group g_fixed type 2
36 atoms in group g_fixed
group g_other type 1
108 atoms in group g_other
fix f_freeze g_fixed setforce 0.0 0.0 0.0 	# Hold atoms of type 2 fixed in place
#fix f_constrain g_other setforce 0.0 0.0 NULL 	# All atoms of type 1 to move only in z direction

#---------------------------------------------------------------------------------------------------
# Specify what information to write out
#---------------------------------------------------------------------------------------------------
thermo_style custom step atoms temp pe ke etotal fmax
thermo_modify format 6 %20.10f
thermo 1000

#compute statom all stress/atom NULL
compute peatom all pe/atom
dump 1 all custom 100000 dump.* id type x y z c_peatom
dump_modify 1 first yes


#---------------------------------------------------------------------------------------------------
# Initial relaxation
#---------------------------------------------------------------------------------------------------
velocity all set 0.0 0.0 0.0

min_style 	cg
min_modify dmax 0.1
minimize 	0.0 1.0e-6 10000 100000
Neighbor list info ...
  update: every = 1 steps, delay = 0 steps, check = yes
  max neighbors/atom: 2000, page size: 100000
  master list distance cutoff = 8.724884
  ghost atom cutoff = 8.724884
  binsize = 4.362442, bins = 6 12 6
  1 neighbor lists, perpetual/occasional/extra = 1 0 0
  (1) pair eam/alloy, perpetual
      attributes: half, newton on
      pair build: half/bin/atomonly/newton/tri
      stencil: half/bin/3d/tri
      bin: standard
Per MPI rank memory allocation (min/avg/max) = 4.667 | 4.667 | 4.667 Mbytes
   Step        Atoms         Temp          PotEng         KinEng         TotEng          Fmax     
         0         144   0             -457.31611      0                  -457.3161147216  3.16199      
        89         144   0             -468.25299      0                  -468.2529865913  1.1173392e-07
Loop time of 0.0172703 on 1 procs for 89 steps with 144 atoms

83.8% CPU use with 1 MPI tasks x no OpenMP threads

Minimization stats:
  Stopping criterion = force tolerance
  Energy initial, next-to-last, final = 
     -457.316114721609  -468.252986591307  -468.252986591306
  Force two-norm initial, final = 11.319784 8.455212e-07
  Force max component initial, final = 3.16199 1.1173392e-07
  Final line search alpha, max atom move = 1 1.1173392e-07
  Iterations, force evaluations = 89 171

MPI task timing breakdown:
Section |  min time  |  avg time  |  max time  |%varavg| %total
---------------------------------------------------------------
Pair    | 0.013268   | 0.013268   | 0.013268   |   0.0 | 76.83
Neigh   | 0          | 0          | 0          |   0.0 |  0.00
Comm    | 0.00080045 | 0.00080045 | 0.00080045 |   0.0 |  4.63
Output  | 0          | 0          | 0          |   0.0 |  0.00
Modify  | 2.5248e-05 | 2.5248e-05 | 2.5248e-05 |   0.0 |  0.15
Other   |            | 0.003176   |            |       | 18.39

Nlocal:            144 ave         144 max         144 min
Histogram: 1 0 0 0 0 0 0 0 0 0
Nghost:           2656 ave        2656 max        2656 min
Histogram: 1 0 0 0 0 0 0 0 0 0
Neighs:          10880 ave       10880 max       10880 min
Histogram: 1 0 0 0 0 0 0 0 0 0

Total # of neighbors = 10880
Ave neighs/atom = 75.555556
Neighbor list builds = 0
Dangerous builds = 0
#---------------------------------------------------------------------------------------------------
# Anneal boundary structures
#---------------------------------------------------------------------------------------------------
reset_timestep 100000
fix md g_other nvt temp ${T_start} ${T_end} $(100.0*v_tstep)
fix md g_other nvt temp 600 ${T_end} $(100.0*v_tstep)
fix md g_other nvt temp 600 200 $(100.0*v_tstep)
fix md g_other nvt temp 600 200 0.2000000000000000111

velocity all create ${T_start} 4928459 rot yes mom yes dist gaussian
velocity all create 600 4928459 rot yes mom yes dist gaussian
run 10000
Per MPI rank memory allocation (min/avg/max) = 4.923 | 4.923 | 4.923 Mbytes
   Step        Atoms         Temp          PotEng         KinEng         TotEng          Fmax     
    100000         144   600           -468.25299      11.09052           -457.1624661503  1.1173392e-07
    101000         144   612.95321     -461.38844      11.32995           -450.0584929870  1.1752726    
    102000         144   567.0515      -462.90206      10.481494          -452.4205627521  1.0923109    
    103000         144   551.32257     -464.53358      10.190757          -454.3428225007  1.0734241    
    104000         144   479.45971     -465.27012      8.8624296          -456.4076857858  1.4883508    
    105000         144   469.58087     -464.71436      8.679827           -456.0345352338  0.99908016   
    106000         144   417.25672     -466.3165       7.7126569          -458.6038445766  1.0551991    
    107000         144   443.63446     -467.52327      8.2002285          -459.3230464915  0.80795806   
    108000         144   398.66393     -468.21483      7.3689841          -460.8458490473  0.76467224   
    109000         144   362.78907     -468.69533      6.7058659          -461.9894597532  0.83142653   
    110000         144   347.14855     -469.41114      6.4167635          -462.9943810606  0.74481941   
Loop time of 0.828997 on 1 procs for 10000 steps with 144 atoms

Performance: 2084.446 ns/day, 0.012 hours/ns, 12062.764 timesteps/s, 1.737 Matom-step/s
99.7% CPU use with 1 MPI tasks x no OpenMP threads

MPI task timing breakdown:
Section |  min time  |  avg time  |  max time  |%varavg| %total
---------------------------------------------------------------
Pair    | 0.71057    | 0.71057    | 0.71057    |   0.0 | 85.71
Neigh   | 0.047258   | 0.047258   | 0.047258   |   0.0 |  5.70
Comm    | 0.048432   | 0.048432   | 0.048432   |   0.0 |  5.84
Output  | 8.5916e-05 | 8.5916e-05 | 8.5916e-05 |   0.0 |  0.01
Modify  | 0.011052   | 0.011052   | 0.011052   |   0.0 |  1.33
Other   |            | 0.0116     |            |       |  1.40

Nlocal:            144 ave         144 max         144 min
Histogram: 1 0 0 0 0 0 0 0 0 0
Nghost:           2755 ave        2755 max        2755 min
Histogram: 1 0 0 0 0 0 0 0 0 0
Neighs:          10605 ave       10605 max       10605 min
Histogram: 1 0 0 0 0 0 0 0 0 0

Total # of neighbors = 10605
Ave neighs/atom = 73.645833
Neighbor list builds = 104
Dangerous builds = 0
unfix md

#---------------------------------------------------------------------------------------------------
# Final relaxation
#---------------------------------------------------------------------------------------------------
velocity all set 0.0 0.0 0.0

min_style 	cg
min_modify dmax 0.1
minimize 	0.0 1.0e-6 10000 100000
Per MPI rank memory allocation (min/avg/max) = 6.049 | 6.049 | 6.049 Mbytes
   Step        Atoms         Temp          PotEng         KinEng         TotEng          Fmax     
    110000         144   0             -469.41114      0                  -469.4111445274  0.74481941   
    110052         144   0             -472.17228      0                  -472.1722760760  1.3399667e-07
Loop time of 0.00907758 on 1 procs for 52 steps with 144 atoms

97.0% CPU use with 1 MPI tasks x no OpenMP threads

Minimization stats:
  Stopping criterion = force tolerance
  Energy initial, next-to-last, final = 
     -469.411144527385  -472.172276075978  -472.172276075976
  Force two-norm initial, final = 4.459576 8.0073676e-07
  Force max component initial, final = 0.74481941 1.3399667e-07
  Final line search alpha, max atom move = 1 1.3399667e-07
  Iterations, force evaluations = 52 103

MPI task timing breakdown:
Section |  min time  |  avg time  |  max time  |%varavg| %total
---------------------------------------------------------------
Pair    | 0.0079721  | 0.0079721  | 0.0079721  |   0.0 | 87.82
Neigh   | 0          | 0          | 0          |   0.0 |  0.00
Comm    | 0.00049391 | 0.00049391 | 0.00049391 |   0.0 |  5.44
Output  | 0          | 0          | 0          |   0.0 |  0.00
Modify  | 1.5129e-05 | 1.5129e-05 | 1.5129e-05 |   0.0 |  0.17
Other   |            | 0.0005965  |            |       |  6.57

Nlocal:            144 ave         144 max         144 min
Histogram: 1 0 0 0 0 0 0 0 0 0
Nghost:           2758 ave        2758 max        2758 min
Histogram: 1 0 0 0 0 0 0 0 0 0
Neighs:          10608 ave       10608 max       10608 min
Histogram: 1 0 0 0 0 0 0 0 0 0

Total # of neighbors = 10608
Ave neighs/atom = 73.666667
Neighbor list builds = 0
Dangerous builds = 0

Total wall time: 0:00:00
