ITEM: TIMESTEP
0
ITEM: NUMBER OF ATOMS
144
ITEM: BOX BOUNDS xy xz yz pp pp pp
0.0000000000000000e+00 4.4641950562223428e+01 4.9602167291359365e+00
0.0000000000000000e+00 5.9893461663189896e+01 2.9761300374815622e+01
0.0000000000000000e+00 2.1734580741297954e+01 4.8802079873710284e+01
ITEM: ATOMS id type x y z c_peatom
70 2 0 0 0 -3.36
82 2 1.65341 3.69713 0 -3.36016
69 2 4.96022 4.3685e-16 0 -3.36
81 2 6.61362 3.69713 0 -3.36016
80 2 4.13351 4.80627 0.905608 -3.35575
88 1 6.61362 8.13368 3.62243 -3.3772
93 1 6.61362 5.9154 1.81122 -3.34486
94 2 5.78692 8.50339 0.905608 -3.35909
95 2 8.26703 7.39425 0 -3.36016
76 1 11.5738 5.9154 1.81122 -3.34486
89 1 11.5738 8.13368 3.62243 -3.3772
91 2 9.09373 4.80627 0.905608 -3.35575
92 1 9.09373 7.02454 2.71682 -3.36318
96 2 13.2272 7.39425 0 -3.36016
104 2 10.7471 8.50339 0.905608 -3.35909
86 1 14.0539 7.02454 2.71682 -3.36318
68 2 7.44033 12.2005 0.905608 -3.36
102 1 8.26703 11.8308 3.62243 -3.36492
106 1 8.26703 9.61253 1.81122 -3.34819
77 2 12.4005 12.2005 0.905608 -3.36
79 1 9.92043 13.3097 1.81122 -3.36
90 1 13.2272 9.61253 1.81122 -3.34819
103 1 13.2272 11.8308 3.62243 -3.36492
105 1 10.7471 10.7217 2.71682 -3.37346
108 1 10.7471 12.9399 4.52804 -3.16437
67 1 14.8807 13.3097 1.81122 -3.36
100 1 15.7074 10.7217 2.71682 -3.37346
101 1 15.7074 12.9399 4.52804 -3.16437
72 1 7.44033 14.4188 2.71682 -3.36
74 1 9.92043 15.5279 3.62243 -3.36
78 1 12.4005 14.4188 2.71682 -3.36
84 1 12.4005 16.6371 4.52804 -3.36
97 1 13.2272 14.0491 5.43365 -1.98343
73 1 17.3608 16.6371 4.52804 -3.36
75 1 14.8807 15.5279 3.62243 -3.36
109 1 18.1875 14.0491 5.43365 -1.98343
98 1 14.0539 20.3342 4.52804 -3.35684
87 1 19.0142 20.3342 4.52804 -3.35684
22 1 11.5738 16.2674 7.24486 -3.35684
35 1 14.0539 15.1582 6.33925 -2.19827
44 1 16.5341 16.2674 7.24486 -3.35684
71 1 14.8807 17.7462 5.43365 -3.36
21 1 19.0142 15.1582 6.33925 -2.19827
85 1 19.8409 17.7462 5.43365 -3.36
2 1 12.4005 18.8553 6.33925 -3.36
4 1 12.4005 21.0736 8.15047 -3.36
1 1 17.3608 18.8553 6.33925 -3.36
5 1 15.7074 22.5525 6.33925 -1.98343
6 1 17.3608 21.0736 8.15047 -3.36
7 1 14.8807 22.1828 9.05608 -3.36
9 1 14.8807 19.9645 7.24486 -3.36
83 1 16.5341 21.4433 5.43365 -2.19827
3 1 19.8409 19.9645 7.24486 -3.36
13 1 19.8409 22.1828 9.05608 -3.36
14 1 20.6676 22.5525 6.33925 -1.98343
99 1 21.4943 21.4433 5.43365 -2.19827
8 2 17.3608 23.2919 9.96168 -3.36
17 1 15.7074 24.7708 8.15047 -3.36492
19 2 15.7074 26.989 9.96168 -3.34835
15 1 18.1875 23.6616 7.24486 -3.16437
16 1 20.6676 24.7708 8.15047 -3.36492
31 2 20.6676 26.989 9.96168 -3.34835
34 1 18.1875 25.8799 9.05608 -3.37346
10 2 22.321 23.2919 9.96168 -3.36
18 1 23.1477 25.8799 9.05608 -3.37346
20 1 23.1477 23.6616 7.24486 -3.16437
36 1 19.0142 28.4679 8.15047 -3.3772
42 1 21.4943 29.577 9.05608 -3.36318
53 2 19.0142 30.6862 9.96168 -3.34486
41 1 23.9744 28.4679 8.15047 -3.3772
43 2 23.9744 30.6862 9.96168 -3.34486
46 1 26.4545 29.577 9.05608 -3.36318
11 2 19.8409 24.401 10.8673 -3.36
26 2 24.8011 24.401 10.8673 -3.36
32 2 18.1875 28.0982 10.8673 -3.35485
33 2 20.6676 29.2073 11.7729 -3.34486
49 1 20.6676 31.4256 13.5841 -3.3772
52 1 18.1875 30.3164 12.6785 -3.36318
60 2 21.4943 31.7953 10.8673 -3.35485
37 2 25.6278 29.2073 11.7729 -3.34486
38 1 23.1477 30.3164 12.6785 -3.36318
39 1 25.6278 31.4256 13.5841 -3.3772
40 2 23.1477 28.0982 10.8673 -3.35485
45 2 26.4545 31.7953 10.8673 -3.35485
58 1 21.4943 34.0136 12.6785 -3.37346
23 2 22.321 36.6016 11.7729 -3.36
57 2 23.9744 32.9044 11.7729 -3.34835
59 1 23.9744 35.1227 13.5841 -3.36492
61 1 26.4545 36.2318 14.4897 -3.16437
62 1 26.4545 34.0136 12.6785 -3.37346
12 2 27.2812 36.6016 11.7729 -3.36
50 1 28.1079 32.5347 14.4897 -3.35684
54 2 28.9346 32.9044 11.7729 -3.34835
63 1 28.9346 35.1227 13.5841 -3.36492
66 1 31.4147 36.2318 14.4897 -3.16437
28 1 24.8011 39.929 14.4897 -3.36
30 1 24.8011 37.7107 12.6785 -3.36
65 1 23.9744 37.341 15.3953 -1.98343
24 1 29.7613 37.7107 12.6785 -3.36
27 1 27.2812 38.8198 13.5841 -3.36
29 1 27.2812 41.0381 15.3953 -3.36
48 1 29.7613 39.929 14.4897 -3.36
64 1 28.9346 37.341 15.3953 -1.98343
25 1 32.2414 38.8198 13.5841 -3.36
47 1 32.2414 41.0381 15.3953 -3.36
55 1 30.588 44.7352 15.3953 -2.19827
56 1 28.1079 43.6261 14.4897 -3.35684
51 1 35.5482 44.7352 15.3953 -2.19827
139 1 25.6278 39.5593 17.2065 -3.35684
127 1 28.1079 38.4501 16.3009 -2.19827
135 1 30.588 39.5593 17.2065 -3.35684
138 1 28.1079 40.6684 18.1122 -3.3772
137 1 33.0681 40.6684 18.1122 -3.3772
140 1 33.0681 38.4501 16.3009 -2.19827
107 1 29.7613 42.1473 16.3009 -3.36
114 1 29.7613 44.3655 18.1122 -3.36
116 1 27.2812 43.2564 17.2065 -3.36
111 1 32.2414 43.2564 17.2065 -3.36
112 1 32.2414 45.4747 19.0178 -3.36
113 1 34.7215 44.3655 18.1122 -3.36
115 1 31.4147 45.8444 16.3009 -1.98343
117 1 34.7215 42.1473 16.3009 -3.36
120 1 37.2016 45.4747 19.0178 -3.36
129 1 36.3749 45.8444 16.3009 -1.98343
110 1 29.7613 46.5838 19.9234 -3.36
128 1 28.9346 46.9535 17.2065 -3.16437
118 2 32.2414 47.6929 20.829 -3.36
119 1 31.4147 50.2809 19.9234 -3.34819
122 1 34.7215 46.5838 19.9234 -3.36
123 1 33.8948 46.9535 17.2065 -3.16437
124 1 33.8948 49.1718 19.0178 -3.37346
126 1 31.4147 48.0627 18.1122 -3.36492
121 2 37.2016 47.6929 20.829 -3.36
125 1 36.3749 48.0627 18.1122 -3.36492
132 1 38.855 49.1718 19.0178 -3.37346
134 1 36.3749 50.2809 19.9234 -3.34819
130 2 33.8948 51.3901 20.829 -3.35909
131 1 33.0681 53.9781 19.9234 -3.34486
136 1 35.5482 52.8689 19.0178 -3.36318
141 2 35.5482 55.0872 20.829 -3.35575
133 2 38.855 51.3901 20.829 -3.35909
144 1 38.0283 53.9781 19.9234 -3.34486
142 1 40.5084 52.8689 19.0178 -3.36318
143 2 40.5084 55.0872 20.829 -3.35575
