#Lammps coordinate file for CSL - Axis: [1 1 1]  Angle: (1, 3) -> 59.99999999999999  Plane indices: [0 1 1]  z-position: [5.4336451853244885 16.300935555973464]  Repeats: 1 1 (3, 3) (black, white)  Fixed: 2.228  Boundary equiv: True
144 atoms

2 atom types

0.0 9.920433458271871 xlo xhi
0.0 11.091381789479609 ylo yhi
0.0 21.734580741297954 zlo zhi
4.9602167291359365 29.761300374815622 48.802079873710284 xy xz yz

Atoms

1 1 17.360758551975778 18.855349042115336 6.339252716211903
2 1 22.32097528111171 18.855349042115336 6.339252716211903
3 1 19.840866916543746 19.964487221063294 7.244860247099319
4 1 22.320975281111714 21.07362540001126 8.150467777986734
5 1 25.627786433869005 22.552476305275206 6.339252716211903
6 1 17.360758551975778 21.07362540001126 8.150467777986734
7 1 14.880650187407811 22.182763578959218 9.05607530887415
8 2 17.360758551975778 23.29190175790718 9.961682839761563
9 1 14.880650187407811 19.964487221063298 7.244860247099318
10 2 22.320975281111714 23.29190175790718 9.961682839761563
11 2 19.840866916543746 24.401039936855142 10.867290370648979
12 2 22.320975281111714 25.5101781158031 11.772897901536393
13 1 19.840866916543746 22.182763578959218 9.05607530887415
14 1 20.66756970473307 22.552476305275206 6.339252716211903
15 1 18.1874613401651 23.661614484223165 7.244860247099318
16 1 20.66756970473307 24.77075266317113 8.150467777986734
17 1 25.627786433869005 24.770752663171127 8.150467777986734
18 1 23.147678069301037 25.87989084211909 9.05607530887415
19 2 25.627786433869005 26.989029021067047 9.961682839761563
20 1 23.147678069301037 23.661614484223165 7.244860247099319
21 1 23.97438085749036 26.249603568435077 6.339252716211902
22 1 26.454489222058328 27.358741747383036 7.244860247099317
23 2 17.360758551975778 25.5101781158031 11.772897901536393
24 1 14.880650187407813 26.619316294751066 12.678505432423808
25 1 17.360758551975778 27.728454473699024 13.584112963311222
26 2 14.880650187407813 24.401039936855142 10.867290370648979
27 1 22.320975281111714 27.728454473699024 13.584112963311222
28 1 19.840866916543746 28.837592652646983 14.489720494198638
29 1 22.320975281111714 29.946730831594948 15.395328025086053
30 1 19.840866916543746 26.619316294751066 12.678505432423808
31 2 20.66756970473307 26.98902902106705 9.961682839761563
32 2 18.1874613401651 28.098167200015013 10.867290370648979
33 2 20.66756970473307 29.20730537896297 11.772897901536393
34 1 18.1874613401651 25.87989084211909 9.05607530887415
35 1 19.014164128354423 26.249603568435077 6.339252716211902
36 1 19.014164128354423 28.467879926331 8.150467777986734
37 2 25.627786433869005 29.20730537896297 11.772897901536393
38 1 23.147678069301037 30.316443557910937 12.678505432423808
39 1 25.627786433869005 31.425581736858895 13.584112963311224
40 2 23.147678069301037 28.098167200015013 10.867290370648979
41 1 23.97438085749036 28.467879926330994 8.150467777986734
42 1 21.49427249292239 29.57701810527896 9.05607530887415
43 2 23.97438085749036 30.686156284226918 9.961682839761563
44 1 21.49427249292239 27.358741747383036 7.244860247099318
45 2 26.454489222058328 31.795294463174884 10.867290370648977
46 1 26.454489222058328 29.57701810527896 9.05607530887415
47 1 17.36075855197578 29.946730831594948 15.395328025086052
48 1 14.880650187407813 28.83759265264699 14.489720494198638
49 1 20.66756970473307 31.425581736858895 13.584112963311222
50 1 18.187461340165104 32.53471991580685 14.489720494198638
51 1 20.66756970473307 33.64385809475482 15.395328025086053
52 1 18.187461340165104 30.316443557910937 12.678505432423808
53 2 19.014164128354423 30.686156284226918 9.961682839761563
54 2 19.014164128354423 32.90443264212284 11.772897901536393
55 1 25.627786433869005 33.64385809475482 15.395328025086052
56 1 23.147678069301037 32.53471991580685 14.48972049419864
57 2 23.97438085749036 32.90443264212284 11.772897901536393
58 1 21.49427249292239 34.01357082107081 12.678505432423808
59 1 23.97438085749036 35.122709000018766 13.584112963311224
60 2 21.49427249292239 31.795294463174884 10.867290370648979
61 1 26.454489222058328 36.231847178966724 14.489720494198636
62 1 26.454489222058324 34.0135708210708 12.678505432423808
63 1 19.014164128354423 35.122709000018766 13.58411296331122
64 1 19.014164128354423 37.34098535791469 15.395328025086052
65 1 23.97438085749036 37.34098535791469 15.39532802508605
66 1 21.49427249292239 36.231847178966724 14.489720494198638
67 1 0.0 2.218276357895922 1.8112150617748295
68 2 2.4801083645679682 1.1091381789479602 0.9056075308874146
69 2 4.9602167291359365 0.0 -1.9455644930253686e-16
70 2 0.0 0.0 0.0
71 1 0.0 6.654829073687768 5.4336451853244885
72 1 2.4801083645679682 3.327414536843884 2.7168225926622442
73 1 2.4801083645679682 5.545690894739806 4.528037654437074
74 1 4.9602167291359365 4.436552715791845 3.622430123549659
75 1 0.0 4.436552715791845 3.622430123549659
76 1 1.6534055763786455 5.915403621055794 1.811215061774829
77 2 7.440325093703903 1.1091381789479602 0.9056075308874145
78 1 7.440325093703903 3.327414536843884 2.7168225926622442
79 1 4.9602167291359365 2.218276357895922 1.8112150617748293
80 2 4.133513940946614 4.806265442107832 0.9056075308874143
81 2 6.61362230551458 3.697127263159871 -5.836693479076105e-16
82 2 1.6534055763786455 3.697127263159871 -3.8911289860507373e-16
83 1 1.6534055763786455 10.351956336847639 5.4336451853244885
84 1 7.440325093703903 5.545690894739806 4.528037654437074
85 1 4.9602167291359365 6.654829073687768 5.4336451853244885
86 1 4.133513940946614 7.024541800003755 2.716822592662244
87 1 4.133513940946614 9.242818157899677 4.528037654437074
88 1 6.61362230551458 8.133679978951715 3.6224301235496585
89 1 1.6534055763786455 8.133679978951717 3.6224301235496585
90 1 3.306811152757291 9.612530884215664 1.8112150617748288
91 2 9.093730670082548 4.806265442107832 0.9056075308874142
92 1 9.093730670082547 7.024541800003755 2.716822592662244
93 1 6.61362230551458 5.915403621055793 1.8112150617748288
94 2 5.7869195173252574 8.503392705267704 0.9056075308874139
95 2 8.267027881893226 7.394254526319742 -9.727822465126844e-16
96 2 3.306811152757291 7.394254526319742 -7.782257972101475e-16
97 1 3.306811152757291 14.04908360000751 5.433645185324488
98 1 9.093730670082547 9.242818157899677 4.528037654437074
99 1 6.613622305514582 10.351956336847639 5.4336451853244885
100 1 5.786919517325259 10.721669063163626 2.7168225926622434
101 1 5.786919517325259 12.939945421059548 4.528037654437073
102 1 8.267027881893226 11.830807242111586 3.622430123549658
103 1 3.306811152757291 11.830807242111588 3.622430123549658
104 2 10.747136246461192 8.503392705267704 0.9056075308874137
105 1 10.747136246461192 10.721669063163626 2.7168225926622434
106 1 8.267027881893226 9.612530884215664 1.8112150617748286
107 1 29.76130037481562 42.14725080002252 16.300935555973467
108 1 10.747136246461192 12.939945421059548 4.528037654437073
109 1 8.267027881893226 14.04908360000751 5.433645185324488
110 1 29.76130037481562 46.58380351581436 19.923365679523123
111 1 32.24140873938359 43.25638897897048 17.20654308686088
112 1 32.24140873938359 45.4746653368664 19.01775814863571
113 1 34.721517103951555 44.36552715791844 18.112150617748295
114 1 29.76130037481562 44.36552715791844 18.112150617748295
115 1 31.414705951194264 45.84437806318239 16.300935555973464
116 1 37.201625468519524 43.25638897897048 17.20654308686088
117 1 34.721517103951555 42.14725080002252 16.300935555973464
118 2 32.24140873938359 47.692941694762325 20.82897321041054
119 1 31.414705951194264 50.28093077897423 19.923365679523123
120 1 37.201625468519524 45.4746653368664 19.017758148635707
121 2 37.201625468519524 47.692941694762325 20.82897321041054
122 1 34.721517103951555 46.58380351581436 19.923365679523126
123 1 33.89481431576223 46.95351624213035 17.20654308686088
124 1 33.89481431576223 49.17179260002627 19.01775814863571
125 1 36.3749226803302 48.062654421078314 18.112150617748295
126 1 31.414705951194264 48.062654421078314 18.112150617748295
127 1 33.06811152757291 49.54150532634226 16.300935555973464
128 1 38.85503104489817 46.95351624213035 17.20654308686088
129 1 36.3749226803302 45.84437806318239 16.300935555973464
130 2 33.89481431576223 51.390068957922196 20.82897321041054
131 1 33.06811152757291 53.9780580421341 19.923365679523123
132 1 38.85503104489817 49.17179260002627 19.017758148635707
133 2 38.85503104489817 51.390068957922196 20.82897321041054
134 1 36.3749226803302 50.28093077897423 19.923365679523126
135 1 35.54821989214088 50.65064350529022 17.20654308686088
136 1 35.54821989214088 52.86891986318614 19.01775814863571
137 1 38.028328256708846 51.759781684238185 18.112150617748295
138 1 33.06811152757291 51.759781684238185 18.112150617748295
139 1 40.508436621276815 50.65064350529022 17.20654308686088
140 1 38.028328256708846 49.54150532634226 16.300935555973464
141 2 35.54821989214088 55.08719622108207 20.82897321041054
142 1 40.508436621276815 52.86891986318614 19.017758148635707
143 2 40.508436621276815 55.08719622108207 20.82897321041054
144 1 38.028328256708846 53.9780580421341 19.923365679523126
