LAMMPS (29 Aug 2024 - Update 2)
#---------------------------------------------------------------------------------------------------
# Initilise important features of simulation
#---------------------------------------------------------------------------------------------------
units 		metal	# Use metals units (Ang, ps, eV, bar, etc.)
dimension 	3		# Run the simulation in three dimensions
boundary 	p p p	# Use periodic boundaries in all three dimensions
atom_style 	atomic	#
#box tilt large		# Allow larger than normal tilt factors

variable T_start equal 600
variable T_end equal 200
variable tstep equal 0.002
timestep ${tstep}
timestep 0.002

read_data   lammps.txt	# Read in atom coordinates from a file
Reading data file ...
  triclinic box = (0 0 0) to (9.9204335 11.091382 19.734581) with tilt (4.9602167 25.421111 47.415657)
WARNING: Triclinic box skew is large. LAMMPS will run inefficiently. (src/domain.cpp:221)
  1 by 1 by 1 MPI processor grid
  reading atoms ...
  144 atoms
  read_data CPU = 0.000 seconds

#---------------------------------------------------------------------------------------------------
# Define how the forces between the atoms will be modelled
#---------------------------------------------------------------------------------------------------
pair_style eam/alloy
pair_coeff * * Zope-Ti-Al-2003.eam.alloy.txt Al Al

#---------------------------------------------------------------------------------------------------
# Set behaviour of simulation
#---------------------------------------------------------------------------------------------------
group g_fixed type 2
36 atoms in group g_fixed
group g_other type 1
108 atoms in group g_other
fix f_freeze g_fixed setforce 0.0 0.0 0.0 	# Hold atoms of type 2 fixed in place
#fix f_constrain g_other setforce 0.0 0.0 NULL 	# All atoms of type 1 to move only in z direction

#---------------------------------------------------------------------------------------------------
# Specify what information to write out
#---------------------------------------------------------------------------------------------------
thermo_style custom step atoms temp pe ke etotal fmax
thermo_modify format 6 %20.10f
thermo 1000

#compute statom all stress/atom NULL
compute peatom all pe/atom
dump 1 all custom 100000 dump.* id type x y z c_peatom
dump_modify 1 first yes


#---------------------------------------------------------------------------------------------------
# Initial relaxation
#---------------------------------------------------------------------------------------------------
velocity all set 0.0 0.0 0.0

min_style 	cg
min_modify dmax 0.1
minimize 	0.0 1.0e-6 10000 100000
Neighbor list info ...
  update: every = 1 steps, delay = 0 steps, check = yes
  max neighbors/atom: 2000, page size: 100000
  master list distance cutoff = 8.724884
  ghost atom cutoff = 8.724884
  binsize = 4.362442, bins = 10 14 5
  1 neighbor lists, perpetual/occasional/extra = 1 0 0
  (1) pair eam/alloy, perpetual
      attributes: half, newton on
      pair build: half/bin/atomonly/newton/tri
      stencil: half/bin/3d/tri
      bin: standard
Per MPI rank memory allocation (min/avg/max) = 4.757 | 4.757 | 4.757 Mbytes
   Step        Atoms         Temp          PotEng         KinEng         TotEng          Fmax     
         0         144   0             -384.7176       0                  -384.7175970564  14.799644    
       105         144   0             -465.31684      0                  -465.3168355621  9.6542521e-08
Loop time of 0.0215386 on 1 procs for 105 steps with 144 atoms

99.6% CPU use with 1 MPI tasks x no OpenMP threads

Minimization stats:
  Stopping criterion = force tolerance
  Energy initial, next-to-last, final = 
     -384.717597056362  -465.316835562056   -465.31683556206
  Force two-norm initial, final = 67.105544 8.0248235e-07
  Force max component initial, final = 14.799644 9.6542521e-08
  Final line search alpha, max atom move = 1 9.6542521e-08
  Iterations, force evaluations = 105 202

MPI task timing breakdown:
Section |  min time  |  avg time  |  max time  |%varavg| %total
---------------------------------------------------------------
Pair    | 0.019049   | 0.019049   | 0.019049   |   0.0 | 88.44
Neigh   | 0.00045762 | 0.00045762 | 0.00045762 |   0.0 |  2.12
Comm    | 0.0013517  | 0.0013517  | 0.0013517  |   0.0 |  6.28
Output  | 0          | 0          | 0          |   0.0 |  0.00
Modify  | 3.2245e-05 | 3.2245e-05 | 3.2245e-05 |   0.0 |  0.15
Other   |            | 0.0006485  |            |       |  3.01

Nlocal:            144 ave         144 max         144 min
Histogram: 1 0 0 0 0 0 0 0 0 0
Nghost:           3924 ave        3924 max        3924 min
Histogram: 1 0 0 0 0 0 0 0 0 0
Neighs:          13262 ave       13262 max       13262 min
Histogram: 1 0 0 0 0 0 0 0 0 0

Total # of neighbors = 13262
Ave neighs/atom = 92.097222
Neighbor list builds = 1
Dangerous builds = 0
#---------------------------------------------------------------------------------------------------
# Anneal boundary structures
#---------------------------------------------------------------------------------------------------
reset_timestep 100000
fix md g_other nvt temp ${T_start} ${T_end} $(100.0*v_tstep)
fix md g_other nvt temp 600 ${T_end} $(100.0*v_tstep)
fix md g_other nvt temp 600 200 $(100.0*v_tstep)
fix md g_other nvt temp 600 200 0.2000000000000000111

velocity all create ${T_start} 4928459 rot yes mom yes dist gaussian
velocity all create 600 4928459 rot yes mom yes dist gaussian
run 10000
Per MPI rank memory allocation (min/avg/max) = 5.013 | 5.013 | 5.013 Mbytes
   Step        Atoms         Temp          PotEng         KinEng         TotEng          Fmax     
    100000         144   600           -465.31684      11.09052           -454.2263151211  9.6542528e-08
    101000         144   618.42683     -458.93636      11.431126          -447.5052387389  1.3953453    
    102000         144   541.8201      -458.00633      10.015111          -447.9912234457  1.5522011    
    103000         144   507.2484      -459.53111      9.3760812          -450.1550244445  1.5959667    
    104000         144   508.08464     -459.53175      9.3915385          -450.1402144680  1.3979269    
    105000         144   477.82721     -460.71011      8.832254           -451.8778510907  1.2104035    
    106000         144   462.19162     -460.50224      8.5432427          -451.9590020929  1.4164152    
    107000         144   437.29122     -461.97558      8.0829787          -453.8926057501  1.0403212    
    108000         144   390.44445     -462.08238      7.2170536          -454.8653295863  1.1404486    
    109000         144   364.58273     -462.73466      6.7390204          -455.9956361494  0.83914807   
    110000         144   323.62813     -463.29299      5.9820073          -457.3109802136  0.86046846   
Loop time of 0.976717 on 1 procs for 10000 steps with 144 atoms

Performance: 1769.191 ns/day, 0.014 hours/ns, 10238.376 timesteps/s, 1.474 Matom-step/s
99.8% CPU use with 1 MPI tasks x no OpenMP threads

MPI task timing breakdown:
Section |  min time  |  avg time  |  max time  |%varavg| %total
---------------------------------------------------------------
Pair    | 0.87848    | 0.87848    | 0.87848    |   0.0 | 89.94
Neigh   | 0.0087409  | 0.0087409  | 0.0087409  |   0.0 |  0.89
Comm    | 0.066224   | 0.066224   | 0.066224   |   0.0 |  6.78
Output  | 5.425e-05  | 5.425e-05  | 5.425e-05  |   0.0 |  0.01
Modify  | 0.010623   | 0.010623   | 0.010623   |   0.0 |  1.09
Other   |            | 0.0126     |            |       |  1.29

Nlocal:            144 ave         144 max         144 min
Histogram: 1 0 0 0 0 0 0 0 0 0
Nghost:           3920 ave        3920 max        3920 min
Histogram: 1 0 0 0 0 0 0 0 0 0
Neighs:          13106 ave       13106 max       13106 min
Histogram: 1 0 0 0 0 0 0 0 0 0

Total # of neighbors = 13106
Ave neighs/atom = 91.013889
Neighbor list builds = 17
Dangerous builds = 0
unfix md

#---------------------------------------------------------------------------------------------------
# Final relaxation
#---------------------------------------------------------------------------------------------------
velocity all set 0.0 0.0 0.0

min_style 	cg
min_modify dmax 0.1
minimize 	0.0 1.0e-6 10000 100000
Per MPI rank memory allocation (min/avg/max) = 6.139 | 6.139 | 6.139 Mbytes
   Step        Atoms         Temp          PotEng         KinEng         TotEng          Fmax     
    110000         144   0             -463.29299      0                  -463.2929875251  0.86046846   
    110093         144   0             -466.19537      0                  -466.1953693893  1.7807781e-07
Loop time of 0.0197095 on 1 procs for 93 steps with 144 atoms

98.8% CPU use with 1 MPI tasks x no OpenMP threads

Minimization stats:
  Stopping criterion = force tolerance
  Energy initial, next-to-last, final = 
     -463.292987525134  -466.195369389315  -466.195369389315
  Force two-norm initial, final = 5.3885518 8.779553e-07
  Force max component initial, final = 0.86046846 1.7807781e-07
  Final line search alpha, max atom move = 1 1.7807781e-07
  Iterations, force evaluations = 93 185

MPI task timing breakdown:
Section |  min time  |  avg time  |  max time  |%varavg| %total
---------------------------------------------------------------
Pair    | 0.017715   | 0.017715   | 0.017715   |   0.0 | 89.88
Neigh   | 0          | 0          | 0          |   0.0 |  0.00
Comm    | 0.0012123  | 0.0012123  | 0.0012123  |   0.0 |  6.15
Output  | 0          | 0          | 0          |   0.0 |  0.00
Modify  | 2.7129e-05 | 2.7129e-05 | 2.7129e-05 |   0.0 |  0.14
Other   |            | 0.000755   |            |       |  3.83

Nlocal:            144 ave         144 max         144 min
Histogram: 1 0 0 0 0 0 0 0 0 0
Nghost:           3918 ave        3918 max        3918 min
Histogram: 1 0 0 0 0 0 0 0 0 0
Neighs:          13067 ave       13067 max       13067 min
Histogram: 1 0 0 0 0 0 0 0 0 0

Total # of neighbors = 13067
Ave neighs/atom = 90.743056
Neighbor list builds = 0
Dangerous builds = 0

Total wall time: 0:00:01
