#Lammps coordinate file for CSL - Axis: [1 1 1]  Angle: (1, 3) -> 59.99999999999999  Plane indices: [0 1 1]  z-position: [4.9336451853244885 14.800935555973464]  Repeats: 1 1 (3, 3) (black, white)  Fixed: 2.228  Boundary equiv: True
144 atoms

2 atom types

0.0 9.920433458271871 xlo xhi
0.0 11.091381789479609 ylo yhi
0.0 19.734580741297954 zlo zhi
4.9602167291359365 5.580243820277933 28.00573901843602 xy xz yz

Atoms

1 1 5.2702302747069325 8.457178614478204 5.339252716211904
2 1 10.230447003842865 8.457178614478202 5.339252716211904
3 1 7.750338639274901 9.566316793426164 6.24486024709932
4 1 10.230447003842867 10.675454972374126 7.150467777986734
5 1 13.537258156600158 12.154305877638073 5.339252716211904
6 1 5.2702302747069325 10.675454972374126 7.150467777986734
7 1 2.7901219101389656 11.784593151322088 8.05607530887415
8 2 5.2702302747069325 12.893731330270048 8.961682839761563
9 1 2.7901219101389656 9.566316793426166 6.244860247099319
10 2 10.230447003842867 12.893731330270048 8.961682839761563
11 2 7.750338639274901 14.002869509218009 9.867290370648979
12 2 10.230447003842867 15.11200768816597 10.772897901536393
13 1 7.750338639274901 11.784593151322088 8.05607530887415
14 1 8.577041427464222 12.154305877638073 5.339252716211904
15 1 6.096933062896255 13.263444056586035 6.244860247099319
16 1 8.577041427464222 14.372582235533997 7.150467777986734
17 1 13.537258156600158 14.372582235533995 7.150467777986734
18 1 11.057149792032192 15.481720414481957 8.05607530887415
19 2 13.53725815660016 16.590858593429918 8.961682839761563
20 1 11.05714979203219 13.263444056586035 6.24486024709932
21 1 11.883852580221514 15.851433140797944 5.339252716211903
22 1 14.363960944789483 16.960571319745906 6.244860247099318
23 2 5.270230274706934 15.11200768816597 10.772897901536393
24 1 2.7901219101389665 16.221145867113933 11.678505432423808
25 1 5.270230274706934 17.330284046061895 12.584112963311222
26 2 2.7901219101389665 14.00286950921801 9.867290370648979
27 1 10.230447003842869 17.330284046061895 12.584112963311222
28 1 7.7503386392749025 18.439422225009853 13.489720494198638
29 1 10.230447003842869 19.548560403957815 14.395328025086053
30 1 7.7503386392749025 16.221145867113933 11.678505432423808
31 2 8.577041427464223 16.590858593429918 8.961682839761563
32 2 6.096933062896257 17.69999677237788 9.867290370648979
33 2 8.577041427464223 18.80913495132584 10.772897901536393
34 1 6.096933062896257 15.48172041448196 8.05607530887415
35 1 6.923635851085578 15.851433140797944 5.339252716211903
36 1 6.923635851085578 18.069709498693868 7.150467777986734
37 2 13.53725815660016 18.80913495132584 10.772897901536393
38 1 11.057149792032192 19.918273130273803 11.678505432423808
39 1 13.53725815660016 21.027411309221765 12.584112963311224
40 2 11.057149792032192 17.69999677237788 9.867290370648979
41 1 11.883852580221514 18.069709498693864 7.150467777986734
42 1 9.403744215653546 19.17884767764183 8.05607530887415
43 2 11.883852580221514 20.28798585658979 8.961682839761563
44 1 9.403744215653546 16.960571319745906 6.244860247099319
45 2 14.363960944789483 21.39712403553775 9.867290370648977
46 1 14.363960944789483 19.178847677641826 8.05607530887415
47 1 5.270230274706934 19.54856040395782 14.395328025086052
48 1 2.7901219101389674 18.439422225009857 13.489720494198638
49 1 8.577041427464223 21.027411309221765 12.584112963311222
50 1 6.096933062896259 22.136549488169724 13.489720494198638
51 1 8.577041427464225 23.245687667117686 14.395328025086053
52 1 6.096933062896257 19.918273130273803 11.678505432423808
53 2 6.923635851085578 20.28798585658979 8.961682839761563
54 2 6.92363585108558 22.506262214485712 10.772897901536393
55 1 13.53725815660016 23.245687667117686 14.395328025086052
56 1 11.057149792032192 22.136549488169724 13.48972049419864
57 2 11.883852580221514 22.506262214485712 10.772897901536393
58 1 9.403744215653548 23.615400393433674 11.678505432423808
59 1 11.883852580221516 24.724538572381636 12.584112963311224
60 2 9.403744215653546 21.39712403553775 9.867290370648979
61 1 14.363960944789481 25.833676751329595 13.489720494198636
62 1 14.36396094478948 23.61540039343367 11.678505432423808
63 1 6.92363585108558 24.724538572381636 12.58411296331122
64 1 6.92363585108558 26.942814930277557 14.395328025086052
65 1 11.883852580221516 26.942814930277557 14.39532802508605
66 1 9.403744215653548 25.833676751329595 13.489720494198638
67 1 4.440892098500626e-16 2.2182763578959226 1.8112150617748295
68 2 2.480108364567968 1.109138178947961 0.9056075308874147
69 2 4.960216729135936 -4.440892098500626e-16 -1.1102230246251565e-16
70 2 0.0 0.0 0.0
71 1 4.440892098500626e-16 6.654829073687768 4.9336451853244885
72 1 2.480108364567968 3.327414536843884 2.7168225926622442
73 1 2.4801083645679682 5.545690894739806 4.528037654437074
74 1 4.960216729135936 4.436552715791845 3.622430123549659
75 1 4.440892098500626e-16 4.436552715791845 3.622430123549659
76 1 1.6534055763786455 5.915403621055795 1.811215061774829
77 2 7.440325093703903 1.109138178947961 0.9056075308874147
78 1 7.440325093703903 3.3274145368438837 2.7168225926622442
79 1 4.960216729135936 2.218276357895922 1.8112150617748295
80 2 4.133513940946613 4.806265442107833 0.9056075308874143
81 2 6.61362230551458 3.6971272631598704 -4.440892098500626e-16
82 2 1.6534055763786453 3.697127263159871 -3.3306690738754696e-16
83 1 1.6534055763786455 10.351956336847639 4.9336451853244885
84 1 7.440325093703903 5.545690894739806 4.528037654437074
85 1 4.960216729135936 6.654829073687768 4.9336451853244885
86 1 4.133513940946613 7.024541800003755 2.716822592662244
87 1 4.133513940946613 9.242818157899677 4.528037654437074
88 1 6.61362230551458 8.133679978951715 3.622430123549659
89 1 1.6534055763786457 8.133679978951717 3.622430123549659
90 1 3.3068111527572905 9.612530884215664 1.8112150617748286
91 2 9.093730670082548 4.806265442107833 0.9056075308874143
92 1 9.093730670082547 7.024541800003755 2.716822592662244
93 1 6.61362230551458 5.915403621055793 1.8112150617748286
94 2 5.7869195173252574 8.503392705267704 0.9056075308874139
95 2 8.267027881893226 7.394254526319742 -8.881784197001252e-16
96 2 3.3068111527572905 7.394254526319742 -6.661338147750939e-16
97 1 3.306811152757291 14.04908360000751 4.933645185324488
98 1 9.093730670082547 9.242818157899677 4.528037654437074
99 1 6.613622305514581 10.351956336847639 4.9336451853244885
100 1 5.786919517325258 10.721669063163626 2.7168225926622434
101 1 5.786919517325258 12.939945421059548 4.528037654437073
102 1 8.267027881893226 11.830807242111586 3.622430123549658
103 1 3.306811152757291 11.830807242111588 3.622430123549658
104 2 10.747136246461192 8.503392705267704 0.9056075308874139
105 1 10.747136246461192 10.721669063163626 2.7168225926622434
106 1 8.267027881893226 9.612530884215664 1.8112150617748286
107 1 5.580243820277929 21.350909944748256 14.800935555973467
108 1 10.747136246461192 12.939945421059548 4.528037654437073
109 1 8.267027881893226 14.04908360000751 4.933645185324488
110 1 5.580243820277929 25.7874626605401 17.923365679523123
111 1 8.060352184845897 22.460048123696218 15.20654308686088
112 1 8.060352184845899 24.678324481592142 17.01775814863571
113 1 10.540460549413865 23.56918630264418 16.112150617748295
114 1 5.580243820277929 23.56918630264418 16.112150617748295
115 1 7.233649396656574 25.048037207908127 14.800935555973464
116 1 13.020568913981831 22.460048123696218 15.20654308686088
117 1 10.540460549413865 21.350909944748256 14.800935555973464
118 2 8.060352184845899 26.896600839488062 18.82897321041054
119 1 7.233649396656576 29.48458992369997 17.923365679523123
120 1 13.020568913981831 24.67832448159214 17.017758148635707
121 2 13.020568913981833 26.896600839488062 18.82897321041054
122 1 10.540460549413865 25.7874626605401 17.923365679523126
123 1 9.713757761224542 26.15717538685609 15.20654308686088
124 1 9.713757761224544 28.375451744752013 17.01775814863571
125 1 12.19386612579251 27.26631356580405 16.112150617748295
126 1 7.233649396656576 27.26631356580405 16.112150617748295
127 1 8.88705497303522 28.745164471067998 14.800935555973464
128 1 14.673974490360479 26.15717538685609 15.20654308686088
129 1 12.19386612579251 25.048037207908127 14.800935555973464
130 2 9.713757761224544 30.593728102647933 18.82897321041054
131 1 8.887054973035221 33.181717186859835 17.923365679523123
132 1 14.673974490360479 28.37545174475201 17.017758148635707
133 2 14.673974490360479 30.593728102647933 18.82897321041054
134 1 12.19386612579251 29.48458992369997 17.923365679523126
135 1 11.367163337603188 29.85430265001596 15.20654308686088
136 1 11.36716333760319 32.072579007911884 17.01775814863571
137 1 13.847271702171156 30.963440828963922 16.112150617748295
138 1 8.887054973035221 30.963440828963922 16.112150617748295
139 1 16.327380066739124 29.85430265001596 15.20654308686088
140 1 13.847271702171156 28.745164471067998 14.800935555973464
141 2 11.36716333760319 34.2908553658078 18.82897321041054
142 1 16.327380066739124 32.07257900791188 17.017758148635707
143 2 16.327380066739124 34.2908553658078 18.82897321041054
144 1 13.847271702171156 33.181717186859835 17.923365679523126
