#Lammps coordinate file for CSL - Axis: [1 1 1]  Angle: (1, 3) -> 59.99999999999999  Plane indices: [0 1 1]  z-position: [5.1836451853244885 15.550935555973464]  Repeats: 1 1 (3, 3) (black, white)  Fixed: 2.228  Boundary equiv: True
144 atoms

2 atom types

0.0 9.920433458271871 xlo xhi
0.0 11.091381789479609 ylo yhi
0.0 20.734580741297954 zlo zhi
4.9602167291359365 11.16048764055586 26.61931629475107 xy xz yz

Atoms

1 1 8.060352184845897 7.7639672526357275 5.839252716211904
2 1 13.02056891398183 7.763967252635727 5.839252716211904
3 1 10.540460549413865 8.873105431583689 6.74486024709932
4 1 13.02056891398183 9.98224361053165 7.650467777986734
5 1 16.32738006673912 11.461094515795597 5.839252716211904
6 1 8.060352184845897 9.98224361053165 7.650467777986734
7 1 5.580243820277929 11.091381789479613 8.55607530887415
8 2 8.060352184845897 12.200519968427573 9.461682839761563
9 1 5.580243820277929 8.87310543158369 6.744860247099319
10 2 13.02056891398183 12.200519968427573 9.461682839761563
11 2 10.540460549413865 13.309658147375533 10.367290370648979
12 2 13.020568913981831 14.418796326323495 11.272897901536393
13 1 10.540460549413865 11.091381789479613 8.55607530887415
14 1 11.367163337603184 11.461094515795597 5.839252716211904
15 1 8.88705497303522 12.57023269474356 6.744860247099319
16 1 11.367163337603186 13.679370873691521 7.650467777986734
17 1 16.32738006673912 13.67937087369152 7.650467777986734
18 1 13.847271702171156 14.788509052639482 8.55607530887415
19 2 16.327380066739124 15.897647231587442 9.461682839761563
20 1 13.847271702171152 12.57023269474356 6.74486024709932
21 1 14.673974490360479 15.158221778955468 5.839252716211903
22 1 17.154082854928447 16.26735995790343 6.744860247099318
23 2 8.060352184845897 14.418796326323495 11.272897901536393
24 1 5.58024382027793 15.527934505271457 12.178505432423808
25 1 8.060352184845897 16.63707268421942 13.084112963311222
26 2 5.58024382027793 13.309658147375535 10.367290370648979
27 1 13.020568913981833 16.63707268421942 13.084112963311222
28 1 10.540460549413865 17.746210863167377 13.989720494198638
29 1 13.020568913981833 18.85534904211534 14.895328025086053
30 1 10.540460549413865 15.527934505271457 12.178505432423808
31 2 11.367163337603188 15.897647231587444 9.461682839761563
32 2 8.88705497303522 17.006785410535404 10.367290370648979
33 2 11.367163337603188 18.115923589483366 11.272897901536393
34 1 8.88705497303522 14.788509052639483 8.55607530887415
35 1 9.713757761224542 15.158221778955468 5.839252716211903
36 1 9.713757761224542 17.376498136851392 7.650467777986734
37 2 16.327380066739124 18.115923589483366 11.272897901536393
38 1 13.847271702171156 19.225061768431328 12.178505432423808
39 1 16.327380066739124 20.33419994737929 13.084112963311224
40 2 13.847271702171156 17.006785410535404 10.367290370648979
41 1 14.673974490360479 17.37649813685139 7.650467777986734
42 1 12.19386612579251 18.485636315799354 8.55607530887415
43 2 14.673974490360479 19.594774494747313 9.461682839761563
44 1 12.19386612579251 16.26735995790343 6.744860247099319
45 2 17.154082854928447 20.703912673695275 10.367290370648977
46 1 17.154082854928447 18.48563631579935 8.55607530887415
47 1 8.060352184845899 18.855349042115343 14.895328025086052
48 1 5.580243820277931 17.74621086316738 13.989720494198638
49 1 11.367163337603188 20.33419994737929 13.084112963311222
50 1 8.887054973035223 21.443338126327248 13.989720494198638
51 1 11.367163337603188 22.55247630527521 14.895328025086053
52 1 8.887054973035221 19.225061768431328 12.178505432423808
53 2 9.713757761224542 19.594774494747313 9.461682839761563
54 2 9.713757761224542 21.813050852643237 11.272897901536393
55 1 16.327380066739124 22.55247630527521 14.895328025086052
56 1 13.847271702171156 21.443338126327248 13.98972049419864
57 2 14.673974490360479 21.813050852643237 11.272897901536393
58 1 12.19386612579251 22.9221890315912 12.178505432423808
59 1 14.673974490360479 24.03132721053916 13.084112963311224
60 2 12.19386612579251 20.703912673695275 10.367290370648979
61 1 17.154082854928443 25.14046538948712 13.989720494198636
62 1 17.154082854928443 22.922189031591195 12.178505432423808
63 1 9.713757761224542 24.03132721053916 13.08411296331122
64 1 9.713757761224542 26.24960356843508 14.895328025086052
65 1 14.673974490360479 26.24960356843508 14.89532802508605
66 1 12.19386612579251 25.14046538948712 13.989720494198638
67 1 0.0 2.2182763578959226 1.8112150617748295
68 2 2.480108364567968 1.109138178947961 0.9056075308874146
69 2 4.960216729135936 -4.440892098500626e-16 -1.6653345369377348e-16
70 2 0.0 0.0 0.0
71 1 8.881784197001252e-16 6.654829073687768 5.1836451853244885
72 1 2.480108364567968 3.327414536843884 2.7168225926622442
73 1 2.4801083645679682 5.545690894739806 4.528037654437074
74 1 4.960216729135936 4.436552715791845 3.622430123549659
75 1 8.881784197001252e-16 4.436552715791845 3.622430123549659
76 1 1.6534055763786455 5.915403621055794 1.8112150617748295
77 2 7.440325093703903 1.109138178947961 0.9056075308874146
78 1 7.440325093703903 3.3274145368438837 2.7168225926622442
79 1 4.960216729135936 2.218276357895922 1.8112150617748295
80 2 4.133513940946613 4.806265442107832 0.9056075308874142
81 2 6.61362230551458 3.6971272631598704 -5.551115123125783e-16
82 2 1.6534055763786455 3.697127263159871 -3.3306690738754696e-16
83 1 1.6534055763786455 10.351956336847639 5.1836451853244885
84 1 7.440325093703903 5.545690894739806 4.528037654437074
85 1 4.960216729135936 6.654829073687768 5.1836451853244885
86 1 4.133513940946613 7.024541800003755 2.716822592662244
87 1 4.133513940946613 9.242818157899677 4.528037654437074
88 1 6.61362230551458 8.133679978951715 3.622430123549659
89 1 1.6534055763786455 8.133679978951717 3.622430123549659
90 1 3.3068111527572905 9.612530884215664 1.811215061774829
91 2 9.093730670082548 4.806265442107832 0.9056075308874142
92 1 9.093730670082547 7.024541800003755 2.716822592662244
93 1 6.61362230551458 5.915403621055793 1.811215061774829
94 2 5.7869195173252574 8.503392705267704 0.9056075308874137
95 2 8.267027881893226 7.394254526319742 -9.43689570931383e-16
96 2 3.3068111527572905 7.394254526319742 -7.216449660063518e-16
97 1 3.306811152757291 14.04908360000751 5.183645185324488
98 1 9.093730670082547 9.242818157899677 4.528037654437074
99 1 6.613622305514581 10.351956336847639 5.1836451853244885
100 1 5.786919517325258 10.721669063163626 2.7168225926622434
101 1 5.786919517325258 12.939945421059548 4.528037654437073
102 1 8.267027881893226 11.830807242111586 3.622430123549658
103 1 3.306811152757291 11.830807242111588 3.622430123549658
104 2 10.747136246461192 8.503392705267704 0.9056075308874137
105 1 10.747136246461192 10.721669063163626 2.7168225926622434
106 1 8.267027881893226 9.612530884215664 1.8112150617748286
107 1 11.160487640555857 19.964487221063305 15.550935555973467
108 1 10.747136246461192 12.939945421059548 4.528037654437073
109 1 8.267027881893226 14.04908360000751 5.183645185324488
110 1 11.160487640555857 24.40103993685515 18.923365679523123
111 1 13.640596005123825 21.073625400011267 16.20654308686088
112 1 13.640596005123825 23.29190175790719 18.01775814863571
113 1 16.120704369691794 22.18276357895923 17.112150617748295
114 1 11.160487640555857 22.18276357895923 17.112150617748295
115 1 12.813893216934503 23.661614484223175 15.550935555973464
116 1 18.60081273425976 21.073625400011267 16.20654308686088
117 1 16.120704369691794 19.964487221063305 15.550935555973464
118 2 13.640596005123825 25.51017811580311 19.82897321041054
119 1 12.813893216934503 28.09816720001502 18.923365679523123
120 1 18.60081273425976 23.291901757907187 18.017758148635707
121 2 18.600812734259762 25.51017811580311 19.82897321041054
122 1 16.120704369691794 24.40103993685515 18.923365679523126
123 1 15.29400158150247 24.770752663171137 16.20654308686088
124 1 15.29400158150247 26.98902902106706 18.01775814863571
125 1 17.77410994607044 25.8798908421191 17.112150617748295
126 1 12.813893216934503 25.8798908421191 17.112150617748295
127 1 14.467298793313148 27.358741747383046 15.550935555973464
128 1 20.254218310638407 24.770752663171137 16.20654308686088
129 1 17.77410994607044 23.661614484223175 15.550935555973464
130 2 15.29400158150247 29.20730537896298 19.82897321041054
131 1 14.467298793313148 31.79529446317489 18.923365679523123
132 1 20.254218310638407 26.989029021067058 18.017758148635707
133 2 20.254218310638407 29.20730537896298 19.82897321041054
134 1 17.77410994607044 28.09816720001502 18.923365679523126
135 1 16.947407157881116 28.46787992633101 16.20654308686088
136 1 16.947407157881116 30.686156284226932 18.01775814863571
137 1 19.427515522449085 29.57701810527897 17.112150617748295
138 1 14.467298793313148 29.57701810527897 17.112150617748295
139 1 21.907623887017053 28.46787992633101 16.20654308686088
140 1 19.427515522449085 27.358741747383046 15.550935555973464
141 2 16.947407157881116 32.904432642122856 19.82897321041054
142 1 21.907623887017053 30.68615628422693 18.017758148635707
143 2 21.907623887017053 32.904432642122856 19.82897321041054
144 1 19.427515522449085 31.79529446317489 18.923365679523126
