LAMMPS (29 Aug 2024 - Update 2)
#---------------------------------------------------------------------------------------------------
# Initilise important features of simulation
#---------------------------------------------------------------------------------------------------
units 		metal	# Use metals units (Ang, ps, eV, bar, etc.)
dimension 	3		# Run the simulation in three dimensions
boundary 	p p p	# Use periodic boundaries in all three dimensions
atom_style 	atomic	#
#box tilt large		# Allow larger than normal tilt factors

variable T_start equal 600
variable T_end equal 200
variable tstep equal 0.002
timestep ${tstep}
timestep 0.002

read_data   lammps.txt	# Read in atom coordinates from a file
Reading data file ...
  triclinic box = (0 0 0) to (9.9204335 11.091382 22.734581) with tilt (4.9602167 14.88065 46.029234)
WARNING: Triclinic box skew is large. LAMMPS will run inefficiently. (src/domain.cpp:221)
  1 by 1 by 1 MPI processor grid
  reading atoms ...
  144 atoms
  read_data CPU = 0.001 seconds

#---------------------------------------------------------------------------------------------------
# Define how the forces between the atoms will be modelled
#---------------------------------------------------------------------------------------------------
pair_style eam/alloy
pair_coeff * * Zope-Ti-Al-2003.eam.alloy.txt Al Al

#---------------------------------------------------------------------------------------------------
# Set behaviour of simulation
#---------------------------------------------------------------------------------------------------
group g_fixed type 2
36 atoms in group g_fixed
group g_other type 1
108 atoms in group g_other
fix f_freeze g_fixed setforce 0.0 0.0 0.0 	# Hold atoms of type 2 fixed in place
#fix f_constrain g_other setforce 0.0 0.0 NULL 	# All atoms of type 1 to move only in z direction

#---------------------------------------------------------------------------------------------------
# Specify what information to write out
#---------------------------------------------------------------------------------------------------
thermo_style custom step atoms temp pe ke etotal fmax
thermo_modify format 6 %20.10f
thermo 1000

#compute statom all stress/atom NULL
compute peatom all pe/atom
dump 1 all custom 100000 dump.* id type x y z c_peatom
dump_modify 1 first yes


#---------------------------------------------------------------------------------------------------
# Initial relaxation
#---------------------------------------------------------------------------------------------------
velocity all set 0.0 0.0 0.0

min_style 	cg
min_modify dmax 0.1
minimize 	0.0 1.0e-6 10000 100000
Neighbor list info ...
  update: every = 1 steps, delay = 0 steps, check = yes
  max neighbors/atom: 2000, page size: 100000
  master list distance cutoff = 8.724884
  ghost atom cutoff = 8.724884
  binsize = 4.362442, bins = 7 14 6
  1 neighbor lists, perpetual/occasional/extra = 1 0 0
  (1) pair eam/alloy, perpetual
      attributes: half, newton on
      pair build: half/bin/atomonly/newton/tri
      stencil: half/bin/3d/tri
      bin: standard
Per MPI rank memory allocation (min/avg/max) = 4.71 | 4.71 | 4.71 Mbytes
   Step        Atoms         Temp          PotEng         KinEng         TotEng          Fmax     
         0         144   0             -444.88064      0                  -444.8806448922  10.338265    
       106         144   0             -474.54369      0                  -474.5436884712  1.4240236e-07
Loop time of 0.0196439 on 1 procs for 106 steps with 144 atoms

99.2% CPU use with 1 MPI tasks x no OpenMP threads

Minimization stats:
  Stopping criterion = force tolerance
  Energy initial, next-to-last, final = 
     -444.880644892156  -474.543688471168  -474.543688471169
  Force two-norm initial, final = 31.633873 7.245612e-07
  Force max component initial, final = 10.338265 1.4240236e-07
  Final line search alpha, max atom move = 1 1.4240236e-07
  Iterations, force evaluations = 106 193

MPI task timing breakdown:
Section |  min time  |  avg time  |  max time  |%varavg| %total
---------------------------------------------------------------
Pair    | 0.016854   | 0.016854   | 0.016854   |   0.0 | 85.80
Neigh   | 0.00092913 | 0.00092913 | 0.00092913 |   0.0 |  4.73
Comm    | 0.0011083  | 0.0011083  | 0.0011083  |   0.0 |  5.64
Output  | 0          | 0          | 0          |   0.0 |  0.00
Modify  | 3.042e-05  | 3.042e-05  | 3.042e-05  |   0.0 |  0.15
Other   |            | 0.0007222  |            |       |  3.68

Nlocal:            144 ave         144 max         144 min
Histogram: 1 0 0 0 0 0 0 0 0 0
Nghost:           3288 ave        3288 max        3288 min
Histogram: 1 0 0 0 0 0 0 0 0 0
Neighs:          11662 ave       11662 max       11662 min
Histogram: 1 0 0 0 0 0 0 0 0 0

Total # of neighbors = 11662
Ave neighs/atom = 80.986111
Neighbor list builds = 2
Dangerous builds = 0
#---------------------------------------------------------------------------------------------------
# Anneal boundary structures
#---------------------------------------------------------------------------------------------------
reset_timestep 100000
fix md g_other nvt temp ${T_start} ${T_end} $(100.0*v_tstep)
fix md g_other nvt temp 600 ${T_end} $(100.0*v_tstep)
fix md g_other nvt temp 600 200 $(100.0*v_tstep)
fix md g_other nvt temp 600 200 0.2000000000000000111

velocity all create ${T_start} 4928459 rot yes mom yes dist gaussian
velocity all create 600 4928459 rot yes mom yes dist gaussian
run 10000
Per MPI rank memory allocation (min/avg/max) = 4.967 | 4.967 | 4.967 Mbytes
   Step        Atoms         Temp          PotEng         KinEng         TotEng          Fmax     
    100000         144   600           -474.54369      11.09052           -463.4531680302  1.4240238e-07
    101000         144   632.08414     -467.77225      11.68357           -456.0886776136  1.2602604    
    102000         144   548.18888     -466.10931      10.132833          -455.9764780878  1.2396022    
    103000         144   531.94241     -467.05425      9.8325304          -457.2217232542  1.3872049    
    104000         144   511.7528      -468.21949      9.4593416          -458.7601520357  1.0641152    
    105000         144   503.04031     -468.54215      9.298298           -459.2438478392  1.3933957    
    106000         144   456.55954     -469.32247      8.4391381          -460.8833317847  1.3451972    
    107000         144   424.73149     -470.13939      7.8508222          -462.2885673194  1.0293289    
    108000         144   407.39163     -470.74879      7.5303086          -463.2184826527  0.87947396   
    109000         144   375.68681     -471.57162      6.9442704          -464.6273496810  0.81653941   
    110000         144   344.53729     -471.99611      6.3684965          -465.6276132475  0.97177099   
Loop time of 0.917464 on 1 procs for 10000 steps with 144 atoms

Performance: 1883.452 ns/day, 0.013 hours/ns, 10899.609 timesteps/s, 1.570 Matom-step/s
99.2% CPU use with 1 MPI tasks x no OpenMP threads

MPI task timing breakdown:
Section |  min time  |  avg time  |  max time  |%varavg| %total
---------------------------------------------------------------
Pair    | 0.79515    | 0.79515    | 0.79515    |   0.0 | 86.67
Neigh   | 0.04167    | 0.04167    | 0.04167    |   0.0 |  4.54
Comm    | 0.056968   | 0.056968   | 0.056968   |   0.0 |  6.21
Output  | 7.2542e-05 | 7.2542e-05 | 7.2542e-05 |   0.0 |  0.01
Modify  | 0.011079   | 0.011079   | 0.011079   |   0.0 |  1.21
Other   |            | 0.01252    |            |       |  1.36

Nlocal:            144 ave         144 max         144 min
Histogram: 1 0 0 0 0 0 0 0 0 0
Nghost:           3240 ave        3240 max        3240 min
Histogram: 1 0 0 0 0 0 0 0 0 0
Neighs:          11561 ave       11561 max       11561 min
Histogram: 1 0 0 0 0 0 0 0 0 0

Total # of neighbors = 11561
Ave neighs/atom = 80.284722
Neighbor list builds = 86
Dangerous builds = 0
unfix md

#---------------------------------------------------------------------------------------------------
# Final relaxation
#---------------------------------------------------------------------------------------------------
velocity all set 0.0 0.0 0.0

min_style 	cg
min_modify dmax 0.1
minimize 	0.0 1.0e-6 10000 100000
Per MPI rank memory allocation (min/avg/max) = 6.092 | 6.092 | 6.092 Mbytes
   Step        Atoms         Temp          PotEng         KinEng         TotEng          Fmax     
    110000         144   0             -471.99611      0                  -471.9961097071  0.97177099   
    110116         144   0             -474.69031      0                  -474.6903087142  3.1623216e-07
Loop time of 0.0217997 on 1 procs for 116 steps with 144 atoms

99.0% CPU use with 1 MPI tasks x no OpenMP threads

Minimization stats:
  Stopping criterion = force tolerance
  Energy initial, next-to-last, final = 
     -471.996109707135  -474.690308714171  -474.690308714169
  Force two-norm initial, final = 4.6863845 8.7452537e-07
  Force max component initial, final = 0.97177099 3.1623216e-07
  Final line search alpha, max atom move = 1 3.1623216e-07
  Iterations, force evaluations = 116 230

MPI task timing breakdown:
Section |  min time  |  avg time  |  max time  |%varavg| %total
---------------------------------------------------------------
Pair    | 0.01962    | 0.01962    | 0.01962    |   0.0 | 90.00
Neigh   | 0          | 0          | 0          |   0.0 |  0.00
Comm    | 0.0012798  | 0.0012798  | 0.0012798  |   0.0 |  5.87
Output  | 0          | 0          | 0          |   0.0 |  0.00
Modify  | 3.3657e-05 | 3.3657e-05 | 3.3657e-05 |   0.0 |  0.15
Other   |            | 0.0008663  |            |       |  3.97

Nlocal:            144 ave         144 max         144 min
Histogram: 1 0 0 0 0 0 0 0 0 0
Nghost:           3296 ave        3296 max        3296 min
Histogram: 1 0 0 0 0 0 0 0 0 0
Neighs:          11569 ave       11569 max       11569 min
Histogram: 1 0 0 0 0 0 0 0 0 0

Total # of neighbors = 11569
Ave neighs/atom = 80.340278
Neighbor list builds = 0
Dangerous builds = 0

Total wall time: 0:00:00
