LAMMPS (29 Aug 2024 - Update 2)
#---------------------------------------------------------------------------------------------------
# Initilise important features of simulation
#---------------------------------------------------------------------------------------------------
units 		metal	# Use metals units (Ang, ps, eV, bar, etc.)
dimension 	3		# Run the simulation in three dimensions
boundary 	p p p	# Use periodic boundaries in all three dimensions
atom_style 	atomic	#
#box tilt large		# Allow larger than normal tilt factors

variable T_start equal 600
variable T_end equal 200
variable tstep equal 0.002
timestep ${tstep}
timestep 0.002

read_data   lammps.txt	# Read in atom coordinates from a file
Reading data file ...
  triclinic box = (0 0 0) to (9.9204335 11.091382 22.734581) with tilt (4.9602167 17.360759 29.392162)
WARNING: Triclinic box skew is large. LAMMPS will run inefficiently. (src/domain.cpp:221)
  1 by 1 by 1 MPI processor grid
  reading atoms ...
  144 atoms
  read_data CPU = 0.000 seconds

#---------------------------------------------------------------------------------------------------
# Define how the forces between the atoms will be modelled
#---------------------------------------------------------------------------------------------------
pair_style eam/alloy
pair_coeff * * Zope-Ti-Al-2003.eam.alloy.txt Al Al

#---------------------------------------------------------------------------------------------------
# Set behaviour of simulation
#---------------------------------------------------------------------------------------------------
group g_fixed type 2
36 atoms in group g_fixed
group g_other type 1
108 atoms in group g_other
fix f_freeze g_fixed setforce 0.0 0.0 0.0 	# Hold atoms of type 2 fixed in place
#fix f_constrain g_other setforce 0.0 0.0 NULL 	# All atoms of type 1 to move only in z direction

#---------------------------------------------------------------------------------------------------
# Specify what information to write out
#---------------------------------------------------------------------------------------------------
thermo_style custom step atoms temp pe ke etotal fmax
thermo_modify format 6 %20.10f
thermo 1000

#compute statom all stress/atom NULL
compute peatom all pe/atom
dump 1 all custom 100000 dump.* id type x y z c_peatom
dump_modify 1 first yes


#---------------------------------------------------------------------------------------------------
# Initial relaxation
#---------------------------------------------------------------------------------------------------
velocity all set 0.0 0.0 0.0

min_style 	cg
min_modify dmax 0.1
minimize 	0.0 1.0e-6 10000 100000
Neighbor list info ...
  update: every = 1 steps, delay = 0 steps, check = yes
  max neighbors/atom: 2000, page size: 100000
  master list distance cutoff = 8.724884
  ghost atom cutoff = 8.724884
  binsize = 4.362442, bins = 8 10 6
  1 neighbor lists, perpetual/occasional/extra = 1 0 0
  (1) pair eam/alloy, perpetual
      attributes: half, newton on
      pair build: half/bin/atomonly/newton/tri
      stencil: half/bin/3d/tri
      bin: standard
Per MPI rank memory allocation (min/avg/max) = 4.657 | 4.657 | 4.657 Mbytes
   Step        Atoms         Temp          PotEng         KinEng         TotEng          Fmax     
         0         144   0             -461.61036      0                  -461.6103588293  3.057627     
        59         144   0             -475.36132      0                  -475.3613197374  1.2902064e-07
Loop time of 0.010235 on 1 procs for 59 steps with 144 atoms

99.3% CPU use with 1 MPI tasks x no OpenMP threads

Minimization stats:
  Stopping criterion = force tolerance
  Energy initial, next-to-last, final = 
     -461.610358829254  -475.361319737373  -475.361319737371
  Force two-norm initial, final = 15.274863 8.1706904e-07
  Force max component initial, final = 3.057627 1.2902064e-07
  Final line search alpha, max atom move = 1 1.2902064e-07
  Iterations, force evaluations = 59 113

MPI task timing breakdown:
Section |  min time  |  avg time  |  max time  |%varavg| %total
---------------------------------------------------------------
Pair    | 0.008924   | 0.008924   | 0.008924   |   0.0 | 87.19
Neigh   | 0.00041192 | 0.00041192 | 0.00041192 |   0.0 |  4.02
Comm    | 0.00047892 | 0.00047892 | 0.00047892 |   0.0 |  4.68
Output  | 0          | 0          | 0          |   0.0 |  0.00
Modify  | 1.4795e-05 | 1.4795e-05 | 1.4795e-05 |   0.0 |  0.14
Other   |            | 0.0004054  |            |       |  3.96

Nlocal:            144 ave         144 max         144 min
Histogram: 1 0 0 0 0 0 0 0 0 0
Nghost:           2394 ave        2394 max        2394 min
Histogram: 1 0 0 0 0 0 0 0 0 0
Neighs:          11622 ave       11622 max       11622 min
Histogram: 1 0 0 0 0 0 0 0 0 0

Total # of neighbors = 11622
Ave neighs/atom = 80.708333
Neighbor list builds = 1
Dangerous builds = 0
#---------------------------------------------------------------------------------------------------
# Anneal boundary structures
#---------------------------------------------------------------------------------------------------
reset_timestep 100000
fix md g_other nvt temp ${T_start} ${T_end} $(100.0*v_tstep)
fix md g_other nvt temp 600 ${T_end} $(100.0*v_tstep)
fix md g_other nvt temp 600 200 $(100.0*v_tstep)
fix md g_other nvt temp 600 200 0.2000000000000000111

velocity all create ${T_start} 4928459 rot yes mom yes dist gaussian
velocity all create 600 4928459 rot yes mom yes dist gaussian
run 10000
Per MPI rank memory allocation (min/avg/max) = 4.913 | 4.913 | 4.913 Mbytes
   Step        Atoms         Temp          PotEng         KinEng         TotEng          Fmax     
    100000         144   600           -475.36132      11.09052           -464.2707992964  1.2902064e-07
    101000         144   551.14811     -468.36362      10.187532          -458.1760841320  1.3427408    
    102000         144   623.39171     -468.17974      11.522898          -456.6568377395  1.4783898    
    103000         144   506.28779     -468.81835      9.3583252          -459.4600266363  1.3881107    
    104000         144   515.45213     -470.90034      9.5277207          -461.3726144587  1.1410474    
    105000         144   468.4956      -471.03715      8.6597666          -462.3773832046  1.4591947    
    106000         144   448.66534     -472.36805      8.2932203          -464.0748263653  1.0467495    
    107000         144   425.24885     -472.22244      7.8603851          -464.3620558220  1.1178448    
    108000         144   398.3712      -472.82496      7.3635733          -465.4613843740  1.0419529    
    109000         144   361.78493     -473.44125      6.6873052          -466.7539473916  1.0292788    
    110000         144   330.80763     -473.88433      6.1147146          -467.7696158578  0.81201889   
Loop time of 0.861049 on 1 procs for 10000 steps with 144 atoms

Performance: 2006.855 ns/day, 0.012 hours/ns, 11613.747 timesteps/s, 1.672 Matom-step/s
99.1% CPU use with 1 MPI tasks x no OpenMP threads

MPI task timing breakdown:
Section |  min time  |  avg time  |  max time  |%varavg| %total
---------------------------------------------------------------
Pair    | 0.76906    | 0.76906    | 0.76906    |   0.0 | 89.32
Neigh   | 0.028769   | 0.028769   | 0.028769   |   0.0 |  3.34
Comm    | 0.041803   | 0.041803   | 0.041803   |   0.0 |  4.85
Output  | 4.8416e-05 | 4.8416e-05 | 4.8416e-05 |   0.0 |  0.01
Modify  | 0.010839   | 0.010839   | 0.010839   |   0.0 |  1.26
Other   |            | 0.01053    |            |       |  1.22

Nlocal:            144 ave         144 max         144 min
Histogram: 1 0 0 0 0 0 0 0 0 0
Nghost:           2358 ave        2358 max        2358 min
Histogram: 1 0 0 0 0 0 0 0 0 0
Neighs:          11578 ave       11578 max       11578 min
Histogram: 1 0 0 0 0 0 0 0 0 0

Total # of neighbors = 11578
Ave neighs/atom = 80.402778
Neighbor list builds = 61
Dangerous builds = 0
unfix md

#---------------------------------------------------------------------------------------------------
# Final relaxation
#---------------------------------------------------------------------------------------------------
velocity all set 0.0 0.0 0.0

min_style 	cg
min_modify dmax 0.1
minimize 	0.0 1.0e-6 10000 100000
Per MPI rank memory allocation (min/avg/max) = 6.038 | 6.038 | 6.038 Mbytes
   Step        Atoms         Temp          PotEng         KinEng         TotEng          Fmax     
    110000         144   0             -473.88433      0                  -473.8843304876  0.81201889   
    110045         144   0             -476.85976      0                  -476.8597627879  1.4305393e-07
Loop time of 0.00818087 on 1 procs for 45 steps with 144 atoms

97.9% CPU use with 1 MPI tasks x no OpenMP threads

Minimization stats:
  Stopping criterion = force tolerance
  Energy initial, next-to-last, final = 
     -473.884330487574  -476.859762787915  -476.859762787916
  Force two-norm initial, final = 5.002616 8.6452646e-07
  Force max component initial, final = 0.81201889 1.4305393e-07
  Final line search alpha, max atom move = 1 1.4305393e-07
  Iterations, force evaluations = 45 88

MPI task timing breakdown:
Section |  min time  |  avg time  |  max time  |%varavg| %total
---------------------------------------------------------------
Pair    | 0.0073491  | 0.0073491  | 0.0073491  |   0.0 | 89.83
Neigh   | 0          | 0          | 0          |   0.0 |  0.00
Comm    | 0.00036779 | 0.00036779 | 0.00036779 |   0.0 |  4.50
Output  | 0          | 0          | 0          |   0.0 |  0.00
Modify  | 1.2752e-05 | 1.2752e-05 | 1.2752e-05 |   0.0 |  0.16
Other   |            | 0.0004512  |            |       |  5.52

Nlocal:            144 ave         144 max         144 min
Histogram: 1 0 0 0 0 0 0 0 0 0
Nghost:           2379 ave        2379 max        2379 min
Histogram: 1 0 0 0 0 0 0 0 0 0
Neighs:          11587 ave       11587 max       11587 min
Histogram: 1 0 0 0 0 0 0 0 0 0

Total # of neighbors = 11587
Ave neighs/atom = 80.465278
Neighbor list builds = 0
Dangerous builds = 0

Total wall time: 0:00:00
