#Lammps coordinate file for CSL - Axis: [1 1 1]  Angle: (1, 3) -> 59.99999999999999  Plane indices: [0 1 1]  z-position: [4.9336451853244885 14.800935555973464]  Repeats: 1 1 (3, 3) (black, white)  Fixed: 2.228  Boundary equiv: True
144 atoms

2 atom types

0.0 9.920433458271871 xlo xhi
0.0 11.091381789479609 ylo yhi
0.0 19.734580741297954 zlo zhi
4.9602167291359365 16.740731460833793 36.32427536054573 xy xz yz

Atoms

1 1 10.850474094984861 12.616446785533057 5.339252716211904
2 1 15.810690824120794 12.616446785533055 5.339252716211904
3 1 13.33058245955283 13.725584964481016 6.24486024709932
4 1 15.810690824120796 14.834723143428977 7.150467777986734
5 1 19.11750197687809 16.313574048692924 5.339252716211904
6 1 10.850474094984861 14.834723143428977 7.150467777986734
7 1 8.370365730416895 15.94386132237694 8.05607530887415
8 2 10.850474094984861 17.0529995013249 8.961682839761563
9 1 8.370365730416895 13.725584964481019 6.244860247099319
10 2 15.810690824120796 17.0529995013249 8.961682839761563
11 2 13.33058245955283 18.16213768027286 9.867290370648979
12 2 15.810690824120798 19.27127585922082 10.772897901536393
13 1 13.33058245955283 15.94386132237694 8.05607530887415
14 1 14.15728524774215 16.313574048692924 5.339252716211904
15 1 11.677176883174184 17.422712227640886 6.244860247099319
16 1 14.157285247742152 18.53185040658885 7.150467777986734
17 1 19.11750197687809 18.53185040658885 7.150467777986734
18 1 16.63739361231012 19.64098858553681 8.05607530887415
19 2 19.11750197687809 20.75012676448477 8.961682839761563
20 1 16.63739361231012 17.422712227640886 6.24486024709932
21 1 17.464096400499443 20.010701311852795 5.339252716211903
22 1 19.94420476506741 21.119839490800757 6.244860247099318
23 2 10.850474094984863 19.27127585922082 10.772897901536393
24 1 8.370365730416896 20.380414038168784 11.678505432423808
25 1 10.850474094984863 21.489552217116746 12.584112963311222
26 2 8.370365730416896 18.162137680272863 9.867290370648979
27 1 15.810690824120798 21.489552217116746 12.584112963311222
28 1 13.330582459552831 22.598690396064704 13.489720494198638
29 1 15.810690824120798 23.707828575012666 14.395328025086053
30 1 13.330582459552831 20.380414038168784 11.678505432423808
31 2 14.157285247742152 20.750126764484772 8.961682839761563
32 2 11.677176883174186 21.85926494343273 9.867290370648979
33 2 14.157285247742152 22.968403122380693 10.772897901536393
34 1 11.677176883174186 19.64098858553681 8.05607530887415
35 1 12.503879671363507 20.010701311852795 5.339252716211903
36 1 12.503879671363507 22.22897766974872 7.150467777986734
37 2 19.11750197687809 22.968403122380693 10.772897901536393
38 1 16.63739361231012 24.077541301328655 11.678505432423808
39 1 19.11750197687809 25.186679480276617 12.584112963311224
40 2 16.63739361231012 21.85926494343273 9.867290370648979
41 1 17.464096400499443 22.228977669748716 7.150467777986734
42 1 14.983988035931475 23.33811584869668 8.05607530887415
43 2 17.464096400499443 24.44725402764464 8.961682839761563
44 1 14.983988035931475 21.119839490800757 6.244860247099319
45 2 19.94420476506741 25.5563922065926 9.867290370648977
46 1 19.94420476506741 23.338115848696678 8.05607530887415
47 1 10.850474094984865 23.70782857501267 14.395328025086052
48 1 8.370365730416896 22.598690396064708 13.489720494198638
49 1 14.157285247742152 25.186679480276617 12.584112963311222
50 1 11.677176883174187 26.295817659224575 13.489720494198638
51 1 14.157285247742154 27.404955838172537 14.395328025086053
52 1 11.677176883174187 24.077541301328655 11.678505432423808
53 2 12.503879671363507 24.44725402764464 8.961682839761563
54 2 12.503879671363508 26.665530385540563 10.772897901536393
55 1 19.11750197687809 27.404955838172537 14.395328025086052
56 1 16.63739361231012 26.295817659224575 13.48972049419864
57 2 17.464096400499443 26.665530385540563 10.772897901536393
58 1 14.983988035931477 27.774668564488525 11.678505432423808
59 1 17.464096400499443 28.883806743436487 12.584112963311224
60 2 14.983988035931475 25.5563922065926 9.867290370648979
61 1 19.94420476506741 29.992944922384446 13.489720494198636
62 1 19.944204765067408 27.774668564488522 11.678505432423808
63 1 12.503879671363508 28.883806743436487 12.58411296331122
64 1 12.503879671363508 31.102083101332408 14.395328025086052
65 1 17.464096400499443 31.102083101332408 14.39532802508605
66 1 14.983988035931477 29.992944922384446 13.489720494198638
67 1 0.0 2.2182763578959226 1.8112150617748293
68 2 2.4801083645679682 1.109138178947961 0.9056075308874147
69 2 4.960216729135936 -8.881784197001252e-16 0.0
70 2 0.0 0.0 0.0
71 1 0.0 6.654829073687768 4.9336451853244885
72 1 2.4801083645679682 3.327414536843884 2.7168225926622442
73 1 2.4801083645679682 5.545690894739806 4.528037654437074
74 1 4.960216729135936 4.436552715791845 3.622430123549659
75 1 0.0 4.436552715791845 3.622430123549659
76 1 1.6534055763786455 5.915403621055794 1.8112150617748293
77 2 7.440325093703903 1.109138178947961 0.9056075308874145
78 1 7.440325093703903 3.3274145368438837 2.7168225926622442
79 1 4.960216729135936 2.218276357895922 1.8112150617748293
80 2 4.133513940946613 4.806265442107832 0.9056075308874145
81 2 6.61362230551458 3.6971272631598704 -4.440892098500626e-16
82 2 1.6534055763786455 3.697127263159871 -3.3306690738754696e-16
83 1 1.6534055763786455 10.351956336847639 4.9336451853244885
84 1 7.440325093703903 5.545690894739806 4.528037654437074
85 1 4.960216729135936 6.654829073687768 4.9336451853244885
86 1 4.133513940946613 7.024541800003755 2.7168225926622442
87 1 4.133513940946613 9.242818157899677 4.528037654437074
88 1 6.61362230551458 8.133679978951715 3.622430123549659
89 1 1.6534055763786455 8.133679978951717 3.622430123549659
90 1 3.306811152757291 9.612530884215664 1.8112150617748288
91 2 9.093730670082548 4.806265442107832 0.9056075308874143
92 1 9.093730670082547 7.024541800003755 2.7168225926622442
93 1 6.61362230551458 5.915403621055793 1.8112150617748288
94 2 5.7869195173252574 8.503392705267704 0.9056075308874141
95 2 8.267027881893226 7.394254526319742 -8.881784197001252e-16
96 2 3.306811152757291 7.394254526319742 -6.661338147750939e-16
97 1 3.306811152757291 14.04908360000751 4.933645185324488
98 1 9.093730670082547 9.242818157899677 4.528037654437074
99 1 6.613622305514581 10.351956336847639 4.9336451853244885
100 1 5.786919517325258 10.721669063163626 2.7168225926622434
101 1 5.786919517325258 12.939945421059548 4.528037654437073
102 1 8.267027881893226 11.830807242111586 3.622430123549659
103 1 3.306811152757291 11.830807242111588 3.622430123549659
104 2 10.747136246461192 8.503392705267704 0.9056075308874139
105 1 10.747136246461192 10.721669063163626 2.7168225926622434
106 1 8.267027881893226 9.612530884215664 1.8112150617748284
107 1 16.740731460833786 29.66944628685796 14.800935555973467
108 1 10.747136246461192 12.939945421059548 4.528037654437073
109 1 8.267027881893226 14.04908360000751 4.933645185324488
110 1 16.740731460833786 34.1059990026498 17.923365679523123
111 1 19.220839825401754 30.77858446580592 15.20654308686088
112 1 19.220839825401754 32.996860823701844 17.01775814863571
113 1 21.700948189969722 31.887722644753882 16.112150617748295
114 1 16.740731460833786 31.887722644753882 16.112150617748295
115 1 18.39413703721243 33.36657355001783 14.800935555973464
116 1 24.18105655453769 30.77858446580592 15.20654308686088
117 1 21.700948189969722 29.66944628685796 14.800935555973464
118 2 19.220839825401754 35.21513718159777 18.82897321041054
119 1 18.39413703721243 37.803126265809674 17.923365679523123
120 1 24.18105655453769 32.996860823701844 17.017758148635707
121 2 24.18105655453769 35.21513718159777 18.82897321041054
122 1 21.700948189969722 34.1059990026498 17.923365679523126
123 1 20.8742454017804 34.47571172896579 15.20654308686088
124 1 20.8742454017804 36.693988086861715 17.01775814863571
125 1 23.354353766348368 35.58484990791376 16.112150617748295
126 1 18.39413703721243 35.58484990791376 16.112150617748295
127 1 20.047542613591077 37.063700813177704 14.800935555973464
128 1 25.834462130916336 34.47571172896579 15.20654308686088
129 1 23.354353766348368 33.36657355001783 14.800935555973464
130 2 20.8742454017804 38.91226444475764 18.82897321041054
131 1 20.047542613591077 41.500253528969544 17.923365679523123
132 1 25.834462130916336 36.693988086861715 17.017758148635707
133 2 25.834462130916336 38.91226444475764 18.82897321041054
134 1 23.354353766348368 37.803126265809674 17.923365679523126
135 1 22.527650978159045 38.17283899212566 15.20654308686088
136 1 22.527650978159045 40.391115350021586 17.01775814863571
137 1 25.007759342727013 39.28197717107363 16.112150617748295
138 1 20.047542613591077 39.28197717107363 16.112150617748295
139 1 27.48786770729498 38.17283899212566 15.20654308686088
140 1 25.007759342727013 37.063700813177704 14.800935555973464
141 2 22.527650978159045 42.60939170791751 18.82897321041054
142 1 27.48786770729498 40.391115350021586 17.017758148635707
143 2 27.48786770729498 42.60939170791751 18.82897321041054
144 1 25.007759342727013 41.500253528969544 17.923365679523126
