ITEM: TIMESTEP
100000
ITEM: NUMBER OF ATOMS
144
ITEM: BOX BOUNDS xy xz yz pp pp pp
0.0000000000000000e+00 3.9681733833087492e+01 4.9602167291359365e+00
0.0000000000000000e+00 4.8802079873710284e+01 2.4801083645679682e+01
0.0000000000000000e+00 2.4734580741297954e+01 3.7710698084230671e+01
ITEM: ATOMS id type x y z c_peatom
70 2 0 0 0 -3.36892
82 2 1.65341 3.69713 0 -3.35905
69 2 4.96022 0 0 -3.36892
81 2 6.61362 3.69713 0 -3.35905
80 2 4.13351 4.80627 0.905608 -3.34464
86 1 4.10134 7.02995 2.84881 -3.33119
88 1 6.58575 8.20455 3.74596 -3.23556
93 1 6.6031 5.89086 1.93824 -3.38159
94 2 5.78692 8.50339 0.905608 -3.35133
95 2 8.26703 7.39425 0 -3.35905
76 1 11.5633 5.89086 1.93824 -3.38159
89 1 11.546 8.20455 3.74596 -3.23556
91 2 9.09373 4.80627 0.905608 -3.34464
92 1 9.06156 7.02995 2.84881 -3.33119
104 2 10.7471 8.50339 0.905608 -3.35133
96 2 13.2272 7.39425 0 -3.35905
68 2 7.44033 12.2005 0.905608 -3.36495
100 1 5.75001 10.7099 2.80265 -3.2677
102 1 8.17454 11.7332 3.85875 -3.29312
106 1 8.26136 9.61119 1.8896 -3.29044
77 2 12.4005 12.2005 0.905608 -3.36495
79 1 9.86673 13.2928 1.90837 -3.36873
90 1 13.2216 9.61119 1.8896 -3.29044
103 1 13.1348 11.7332 3.85875 -3.29312
105 1 10.7102 10.7099 2.80265 -3.2677
108 1 10.5931 12.8297 4.71297 -3.2172
67 1 14.8269 13.2928 1.90837 -3.36873
101 1 15.5533 12.8297 4.71297 -3.2172
72 1 7.36749 14.3706 2.87404 -3.3398
74 1 9.80876 15.5198 3.79908 -3.25046
78 1 12.3277 14.3706 2.87404 -3.3398
84 1 12.2892 16.6943 4.84118 -3.16503
73 1 17.2495 16.6943 4.84118 -3.16503
75 1 14.769 15.5198 3.79908 -3.25046
98 1 9.69521 9.88959 5.50834 -3.14787
83 1 11.9967 11.262 6.6302 -3.15661
87 1 14.6554 9.88959 5.50834 -3.14787
99 1 16.957 11.262 6.6302 -3.15661
2 1 10.2373 13.4942 7.55223 -3.13408
5 1 13.2232 16.9493 7.67484 -3.07766
9 1 12.5604 14.4101 8.72708 -3.15966
97 1 13.0176 13.9658 5.78555 -3.09982
1 1 15.1975 13.4942 7.55223 -3.13408
3 1 17.5206 14.4101 8.72708 -3.15966
6 1 14.9691 15.5767 9.61105 -3.2733
4 1 19.9293 15.5767 9.61105 -3.2733
14 1 18.1834 16.9493 7.67484 -3.07766
109 1 17.9779 13.9658 5.78555 -3.09982
21 1 12.279 19.4842 6.49396 -3.12769
71 1 14.7697 18.0564 5.63843 -3.09227
17 1 13.2355 19.3112 9.43739 -3.28164
15 1 15.706 18.161 8.54032 -3.19009
22 1 14.2902 21.8257 8.31214 -3.17404
35 1 17.2392 19.4842 6.49396 -3.12769
85 1 19.7299 18.0564 5.63843 -3.09227
16 1 18.1957 19.3112 9.43739 -3.28164
20 1 20.6662 18.161 8.54032 -3.19009
44 1 19.2504 21.8257 8.31214 -3.17404
36 1 16.683 22.8608 9.47036 -3.28651
41 1 21.6432 22.8608 9.47036 -3.28651
7 1 12.4364 16.7 10.4945 -3.37074
8 2 14.8807 17.7462 11.4617 -3.36614
13 1 17.3967 16.7 10.4945 -3.37074
10 2 19.8409 17.7462 11.4617 -3.36614
34 1 15.7169 20.3465 10.4519 -3.2868
18 1 20.6771 20.3465 10.4519 -3.2868
31 2 18.1875 21.4433 11.4617 -3.32773
19 2 23.1477 21.4433 11.4617 -3.32773
32 2 15.7074 22.5525 12.3673 -3.35972
53 2 16.5341 25.1405 11.4617 -3.36569
46 1 14.162 23.9778 10.3961 -3.36945
33 2 18.1875 23.6616 13.2729 -3.36569
38 1 20.5596 24.8243 14.3385 -3.36945
40 2 20.6676 22.5525 12.3673 -3.35972
42 1 19.1222 23.9778 10.3961 -3.36945
43 2 21.4943 25.1405 11.4617 -3.36569
60 2 19.0142 26.2496 12.3673 -3.35972
52 1 25.5198 24.8243 14.3385 -3.36945
37 2 23.1477 23.6616 13.2729 -3.36569
45 2 23.9744 26.2496 12.3673 -3.35972
54 2 16.5341 27.3587 13.2729 -3.32773
23 2 19.8409 31.0559 13.2729 -3.36614
57 2 21.4943 27.3587 13.2729 -3.32773
58 1 19.0046 28.4556 14.2827 -3.2868
11 2 22.321 29.9467 12.3673 -3.36036
12 2 24.8011 31.0559 13.2729 -3.36614
62 1 23.9648 28.4556 14.2827 -3.2868
26 2 27.2812 29.9467 12.3673 -3.36036
30 1 22.2851 32.1021 14.2401 -3.37074
24 1 27.2453 32.1021 14.2401 -3.37074
49 1 18.0385 25.9412 15.2642 -3.28651
39 1 22.9987 25.9412 15.2642 -3.28651
56 1 20.4313 26.9763 16.4224 -3.17404
59 1 21.486 29.4909 15.2972 -3.28164
66 1 19.0155 30.6411 16.1943 -3.19009
117 1 19.9519 30.7457 19.0961 -3.09227
50 1 25.3915 26.9763 16.4224 -3.17404
55 1 22.4425 29.3178 18.2406 -3.12769
61 1 23.9758 30.6411 16.1943 -3.19009
63 1 26.4462 29.4909 15.2972 -3.28164
107 1 24.9121 30.7457 19.0961 -3.09227
51 1 27.4027 29.3178 18.2406 -3.12769
25 1 19.7525 33.2254 15.1235 -3.2733
65 1 21.4983 31.8528 17.0597 -3.07766
129 1 21.7039 34.8363 18.949 -3.09982
27 1 24.7127 33.2254 15.1235 -3.2733
28 1 22.1612 34.392 16.0075 -3.15966
29 1 24.4842 35.3079 17.1823 -3.13408
64 1 26.4585 31.8528 17.0597 -3.07766
48 1 27.1214 34.392 16.0075 -3.15966
115 1 26.6641 34.8363 18.949 -3.09982
47 1 29.4444 35.3079 17.1823 -3.13408
140 1 22.7248 37.5401 18.1044 -3.15661
139 1 25.0263 38.9125 19.2262 -3.14787
127 1 27.685 37.5401 18.1044 -3.15661
135 1 29.9865 38.9125 19.2262 -3.14787
114 1 24.9128 33.2823 20.9355 -3.25046
116 1 22.4323 32.1078 19.8934 -3.16503
111 1 27.3925 32.1078 19.8934 -3.16503
112 1 27.354 34.4315 21.8605 -3.3398
113 1 29.873 33.2823 20.9355 -3.25046
120 1 32.3142 34.4315 21.8605 -3.3398
110 1 24.8548 35.5093 22.8262 -3.36873
128 1 24.1284 35.9724 20.0216 -3.2172
122 1 29.815 35.5093 22.8262 -3.36873
126 1 26.547 37.0689 20.8758 -3.29312
118 2 27.2812 36.6016 23.829 -3.36495
119 1 26.4602 39.1909 22.845 -3.29044
123 1 29.0886 35.9724 20.0216 -3.2172
124 1 28.9715 38.0922 21.9319 -3.2677
121 2 32.2414 36.6016 23.829 -3.36495
125 1 31.5072 37.0689 20.8758 -3.29312
132 1 33.9317 38.0922 21.9319 -3.2677
134 1 31.4204 39.1909 22.845 -3.29044
130 2 28.9346 40.2987 23.829 -3.35133
131 1 28.1184 42.9112 22.7963 -3.38159
136 1 30.6202 41.7721 21.8858 -3.33119
138 1 28.1358 40.5975 20.9886 -3.23556
141 2 30.588 43.9958 23.829 -3.34464
133 2 33.8948 40.2987 23.829 -3.35133
137 1 33.096 40.5975 20.9886 -3.23556
144 1 33.0786 42.9112 22.7963 -3.38159
142 1 35.5804 41.7721 21.8858 -3.33119
143 2 35.5482 43.9958 23.829 -3.34464
