ITEM: TIMESTEP
100000
ITEM: NUMBER OF ATOMS
144
ITEM: BOX BOUNDS xy xz yz pp pp pp
0.0000000000000000e+00 3.4721517103951555e+01 4.9602167291359365e+00
0.0000000000000000e+00 4.6029234426340395e+01 1.9840866916543746e+01
0.0000000000000000e+00 2.4734580741297954e+01 3.4937852636860782e+01
ITEM: ATOMS id type x y z c_peatom
69 2 4.96022 3.1364e-16 0 -3.3552
70 2 0 0 0 -3.3552
82 2 1.65341 3.69713 0 -3.35876
81 2 6.61362 3.69713 0 -3.35876
80 2 4.13351 4.80627 0.905608 -3.36121
86 1 4.14674 7.08345 2.8072 -3.38688
88 1 6.58113 8.19217 3.73484 -3.30733
91 2 9.09373 4.80627 0.905608 -3.36121
92 1 9.10695 7.08345 2.8072 -3.38688
93 1 6.63372 5.94591 1.87327 -3.38878
94 2 5.78692 8.50339 0.905608 -3.35595
95 2 8.26703 7.39425 0 -3.35876
76 1 11.5939 5.94591 1.87327 -3.38878
89 1 11.5414 8.19217 3.73484 -3.30733
96 2 13.2272 7.39425 0 -3.35876
104 2 10.7471 8.50339 0.905608 -3.35595
68 2 7.44033 12.2005 0.905608 -3.36075
98 1 8.98883 9.24249 4.76493 -3.15586
100 1 5.73891 10.724 2.80484 -3.37781
102 1 8.20464 11.8349 3.70829 -3.32834
106 1 8.25113 9.623 1.88981 -3.37738
77 2 12.4005 12.2005 0.905608 -3.36075
79 1 9.92624 13.2993 1.86543 -3.38237
87 1 13.9491 9.24249 4.76493 -3.15586
90 1 13.2113 9.623 1.88981 -3.37738
103 1 13.1649 11.8349 3.70829 -3.32834
105 1 10.6991 10.724 2.80484 -3.37781
108 1 10.6974 12.9844 4.63298 -3.1579
67 1 14.8865 13.2993 1.86543 -3.38237
101 1 15.6576 12.9844 4.63298 -3.1579
72 1 7.46638 14.4246 2.78241 -3.38161
74 1 9.98193 15.5414 3.63527 -3.32181
78 1 12.4266 14.4246 2.78241 -3.38161
84 1 12.5417 16.6662 4.59087 -3.1309
75 1 14.9421 15.5414 3.63527 -3.32181
73 1 17.5019 16.6662 4.59087 -3.1309
2 1 7.65215 12.0031 7.7418 -3.00213
99 1 6.45745 10.3876 5.6879 -2.9711
9 1 10.0576 13.0134 8.7314 -3.13378
1 1 12.6124 12.0031 7.7418 -3.00213
83 1 11.4177 10.3876 5.6879 -2.9711
3 1 15.0178 13.0134 8.7314 -3.13378
109 1 8.23303 14.0957 5.65011 -2.98
85 1 10.1308 17.6743 5.57005 -3.00052
5 1 10.7169 15.585 7.65939 -2.98203
6 1 12.4629 14.1396 9.66359 -3.32216
15 1 13.1798 16.6956 8.68423 -3.1611
17 1 10.6957 17.8496 9.60256 -3.3295
97 1 13.1932 14.0957 5.65011 -2.98
71 1 15.091 17.6743 5.57005 -3.00052
4 1 17.4231 14.1396 9.66359 -3.32216
14 1 15.6772 15.585 7.65939 -2.98203
16 1 15.6559 17.8496 9.60256 -3.3295
20 1 18.1401 16.6956 8.68423 -3.1611
22 1 11.4742 20.4364 8.55958 -3.15628
35 1 13.9086 19.2951 7.63177 -2.97104
36 1 14.0285 21.4897 9.58429 -3.31132
21 1 18.8688 19.2951 7.63177 -2.97104
41 1 18.9887 21.4897 9.58429 -3.31132
44 1 16.4344 20.4364 8.55958 -3.15628
7 1 9.94594 15.2561 10.5176 -3.38454
8 2 12.4005 16.3598 11.4617 -3.38439
13 1 14.9062 15.2561 10.5176 -3.38454
10 2 17.3608 16.3598 11.4617 -3.38439
32 2 13.2272 21.1661 12.3673 -3.36624
34 1 13.1887 18.9488 10.5039 -3.38273
18 1 18.1489 18.9488 10.5039 -3.38273
31 2 15.7074 20.0569 11.4617 -3.38062
33 2 15.7074 22.2752 13.2729 -3.39053
40 2 18.1875 21.1661 12.3673 -3.36624
42 1 16.5434 22.5982 10.4995 -3.38937
19 2 20.6676 20.0569 11.4617 -3.38062
37 2 20.6676 22.2752 13.2729 -3.39053
46 1 21.5037 22.5982 10.4995 -3.38937
52 1 13.2179 23.431 14.2351 -3.38937
53 2 14.0539 23.754 11.4617 -3.39053
54 2 14.0539 25.9723 13.2729 -3.38062
38 1 18.1781 23.431 14.2351 -3.38937
43 2 19.0142 23.754 11.4617 -3.39053
57 2 19.0142 25.9723 13.2729 -3.38062
58 1 16.5726 27.0804 14.2307 -3.38273
60 2 16.5341 24.8632 12.3673 -3.36624
45 2 21.4943 24.8632 12.3673 -3.36624
62 1 21.5328 27.0804 14.2307 -3.38273
11 2 19.8409 28.5603 12.3673 -3.36973
23 2 17.3608 29.6694 13.2729 -3.38439
30 1 19.8154 30.7732 14.217 -3.38454
12 2 22.321 29.6694 13.2729 -3.38439
24 1 24.7756 30.7732 14.217 -3.38454
26 2 24.8011 28.5603 12.3673 -3.36973
49 1 15.7328 24.5395 15.1503 -3.31132
51 1 15.8527 26.7341 17.1028 -2.97104
56 1 18.2871 25.5929 16.175 -3.15628
39 1 20.6931 24.5395 15.1503 -3.31132
50 1 23.2473 25.5929 16.175 -3.15628
55 1 20.8129 26.7341 17.1028 -2.97104
25 1 17.2984 31.8897 15.071 -3.32216
59 1 19.0656 28.1797 15.132 -3.3295
65 1 19.0444 30.4442 17.0752 -2.98203
66 1 16.5815 29.3336 16.0503 -3.1611
107 1 19.6305 28.3549 19.1645 -3.00052
27 1 22.2586 31.8897 15.071 -3.32216
61 1 21.5417 29.3336 16.0503 -3.1611
63 1 24.0258 28.1797 15.132 -3.3295
64 1 24.0046 30.4442 17.0752 -2.98203
115 1 21.5283 31.9335 19.0845 -2.98
117 1 24.5907 28.3549 19.1645 -3.00052
129 1 26.4885 31.9335 19.0845 -2.98
28 1 19.7037 33.0158 16.0032 -3.13378
29 1 22.1092 34.0262 16.9928 -3.00213
48 1 24.6639 33.0158 16.0032 -3.13378
127 1 23.3038 35.6416 19.0467 -2.9711
47 1 27.0694 34.0262 16.9928 -3.00213
140 1 28.2641 35.6416 19.0467 -2.9711
114 1 19.7794 30.4879 21.0993 -3.32181
116 1 17.2196 29.363 20.1437 -3.1309
111 1 22.1798 29.363 20.1437 -3.1309
112 1 22.2949 31.6046 21.9522 -3.38161
113 1 24.7396 30.4879 21.0993 -3.32181
120 1 27.2551 31.6046 21.9522 -3.38161
110 1 19.8351 32.7299 22.8691 -3.38237
128 1 19.0639 33.0448 20.1016 -3.1579
118 2 22.321 33.8287 23.829 -3.36075
119 1 21.5102 36.4062 22.8448 -3.37738
122 1 24.7953 32.7299 22.8691 -3.38237
123 1 24.0241 33.0448 20.1016 -3.1579
124 1 24.0224 35.3053 21.9297 -3.37781
126 1 21.5567 34.1944 21.0263 -3.32834
139 1 20.7725 36.7867 19.9696 -3.15586
121 2 27.2812 33.8287 23.829 -3.36075
125 1 26.5169 34.1944 21.0263 -3.32834
132 1 28.9826 35.3053 21.9297 -3.37781
134 1 26.4704 36.4062 22.8448 -3.37738
135 1 25.7327 36.7867 19.9696 -3.15586
130 2 23.9744 37.5258 23.829 -3.35595
131 1 23.1276 40.0833 22.8613 -3.38878
138 1 23.1802 37.8371 20.9997 -3.30733
133 2 28.9346 37.5258 23.829 -3.35595
136 1 25.6146 38.9458 21.9274 -3.38688
137 1 28.1404 37.8371 20.9997 -3.30733
141 2 25.6278 41.223 23.829 -3.36121
144 1 28.0878 40.0833 22.8613 -3.38878
142 1 30.5748 38.9458 21.9274 -3.38688
143 2 30.588 41.223 23.829 -3.36121
