ITEM: TIMESTEP
0
ITEM: NUMBER OF ATOMS
144
ITEM: BOX BOUNDS xy xz yz pp pp pp
0.0000000000000000e+00 3.4721517103951555e+01 4.9602167291359365e+00
0.0000000000000000e+00 4.8802079873710284e+01 1.9840866916543746e+01
0.0000000000000000e+00 1.9734580741297954e+01 3.7710698084230678e+01
ITEM: ATOMS id type x y z c_peatom
69 2 4.96022 0 0 -3.31223
70 2 0 0 0 -3.31223
82 2 1.65341 3.69713 0 -3.30861
81 2 6.61362 3.69713 0 -3.30861
80 2 4.13351 4.80627 0.905608 -3.33148
86 1 4.13351 7.02454 2.71682 -3.30657
88 1 6.61362 8.13368 3.62243 -3.41392
91 2 9.09373 4.80627 0.905608 -3.33148
92 1 9.09373 7.02454 2.71682 -3.30657
93 1 6.61362 5.9154 1.81122 -3.33972
94 2 5.78692 8.50339 0.905608 -3.33744
95 2 8.26703 7.39425 0 -3.30861
76 1 11.5738 5.9154 1.81122 -3.33972
89 1 11.5738 8.13368 3.62243 -3.41392
96 2 13.2272 7.39425 0 -3.30861
104 2 10.7471 8.50339 0.905608 -3.33744
68 2 7.44033 12.2005 0.905608 -3.35333
79 1 9.92043 13.3097 1.81122 -3.35953
98 1 9.09373 9.24282 4.52804 1.39318
100 1 5.78692 10.7217 2.71682 -3.28639
102 1 8.26703 11.8308 3.62243 -3.2777
106 1 8.26703 9.61253 1.81122 -3.34499
77 2 12.4005 12.2005 0.905608 -3.35333
87 1 14.0539 9.24282 4.52804 1.39318
90 1 13.2272 9.61253 1.81122 -3.34499
103 1 13.2272 11.8308 3.62243 -3.2777
105 1 10.7471 10.7217 2.71682 -3.28639
108 1 10.7471 12.9399 4.52804 -2.68753
67 1 14.8807 13.3097 1.81122 -3.35953
101 1 15.7074 12.9399 4.52804 -2.68753
72 1 7.44033 14.4188 2.71682 -3.3191
74 1 9.92043 15.5279 3.62243 -3.26418
109 1 8.26703 14.0491 4.93365 0.031158
75 1 14.8807 15.5279 3.62243 -3.26418
78 1 12.4005 14.4188 2.71682 -3.3191
84 1 12.4005 16.6371 4.52804 -2.68278
97 1 13.2272 14.0491 4.93365 0.031158
73 1 17.3608 16.6371 4.52804 -2.68278
2 1 7.44033 13.3097 5.33925 0.192708
99 1 6.61362 10.352 4.93365 -1.09181
83 1 11.5738 10.352 4.93365 -1.09181
1 1 12.4005 13.3097 5.33925 0.192708
3 1 14.8807 14.4188 6.24486 -3.01077
5 1 10.7471 17.0068 5.33925 0.20157
6 1 12.4005 15.5279 7.15047 -3.4598
7 1 9.92043 16.6371 8.05608 -3.39802
9 1 9.92043 14.4188 6.24486 -3.01077
13 1 14.8807 16.6371 8.05608 -3.39802
4 1 17.3608 15.5279 7.15047 -3.4598
14 1 15.7074 17.0068 5.33925 0.20157
85 1 9.92043 17.7462 4.93365 0.025795
8 2 12.4005 17.7462 8.96168 -3.32498
15 1 13.2272 18.1159 6.24486 -3.02078
17 1 10.7471 19.2251 7.15047 -3.45928
22 1 11.5738 21.8131 6.24486 -1.44086
34 1 13.2272 20.3342 8.05608 -3.34722
35 1 14.0539 20.7039 5.33925 1.43669
71 1 14.8807 17.7462 4.93365 0.025795
10 2 17.3608 17.7462 8.96168 -3.32498
16 1 15.7074 19.2251 7.15047 -3.45928
18 1 18.1875 20.3342 8.05608 -3.34722
20 1 18.1875 18.1159 6.24486 -3.02078
21 1 19.0142 20.7039 5.33925 1.43669
31 2 15.7074 21.4433 8.96168 -3.33002
44 1 16.5341 21.8131 6.24486 -1.44086
19 2 20.6676 21.4433 8.96168 -3.33002
36 1 14.0539 22.9222 7.15047 -3.44718
53 2 14.0539 25.1405 8.96168 -3.32598
41 1 19.0142 22.9222 7.15047 -3.44718
42 1 16.5341 24.0313 8.05608 -3.36582
43 2 19.0142 25.1405 8.96168 -3.32598
46 1 21.4943 24.0313 8.05608 -3.36582
32 2 13.2272 22.5525 9.86729 -3.30082
52 1 13.2272 24.7708 11.6785 -3.36582
33 2 15.7074 23.6616 10.7729 -3.32598
38 1 18.1875 24.7708 11.6785 -3.36582
40 2 18.1875 22.5525 9.86729 -3.30082
49 1 15.7074 25.8799 12.5841 -3.44718
60 2 16.5341 26.2496 9.86729 -3.30082
37 2 20.6676 23.6616 10.7729 -3.32598
39 1 20.6676 25.8799 12.5841 -3.44718
45 2 21.4943 26.2496 9.86729 -3.30082
54 2 14.0539 27.3587 10.7729 -3.33002
26 2 14.8807 29.9467 9.86729 -3.31356
51 1 15.7074 28.0982 14.3953 1.43669
56 1 18.1875 26.989 13.4897 -1.44086
57 2 19.0142 27.3587 10.7729 -3.33002
58 1 16.5341 28.4679 11.6785 -3.34722
59 1 19.0142 29.577 12.5841 -3.45928
66 1 16.5341 30.6862 13.4897 -3.02078
11 2 19.8409 29.9467 9.86729 -3.31356
50 1 23.1477 26.989 13.4897 -1.44086
55 1 20.6676 28.0982 14.3953 1.43669
61 1 21.4943 30.6862 13.4897 -3.02078
62 1 21.4943 28.4679 11.6785 -3.34722
63 1 23.9744 29.577 12.5841 -3.45928
23 2 17.3608 31.0559 10.7729 -3.32498
25 1 17.3608 33.2741 12.5841 -3.4598
30 1 19.8409 32.165 11.6785 -3.39802
65 1 19.0142 31.7953 14.3953 0.20157
12 2 22.321 31.0559 10.7729 -3.32498
24 1 24.8011 32.165 11.6785 -3.39802
27 1 22.321 33.2741 12.5841 -3.4598
28 1 19.8409 34.3833 13.4897 -3.01077
64 1 23.9744 31.7953 14.3953 0.20157
115 1 21.4943 34.753 14.8009 0.031158
117 1 24.8011 31.0559 14.8009 0.025795
48 1 24.8011 34.3833 13.4897 -3.01077
129 1 26.4545 34.753 14.8009 0.031158
29 1 22.321 35.4924 14.3953 0.192708
127 1 23.1477 38.4501 14.8009 -1.09181
47 1 27.2812 35.4924 14.3953 0.192708
140 1 28.1079 38.4501 14.8009 -1.09181
116 1 17.3608 32.165 15.2065 -2.68278
107 1 19.8409 31.0559 14.8009 0.025795
111 1 22.321 32.165 15.2065 -2.68278
112 1 22.321 34.3833 17.0178 -3.3191
113 1 24.8011 33.2741 16.1122 -3.26418
114 1 19.8409 33.2741 16.1122 -3.26418
120 1 27.2812 34.3833 17.0178 -3.3191
128 1 19.0142 35.8621 15.2065 -2.68753
110 1 19.8409 35.4924 17.9234 -3.35953
118 2 22.321 36.6016 18.829 -3.35333
119 1 21.4943 39.1895 17.9234 -3.34499
122 1 24.8011 35.4924 17.9234 -3.35953
123 1 23.9744 35.8621 15.2065 -2.68753
124 1 23.9744 38.0804 17.0178 -3.28639
126 1 21.4943 36.9713 16.1122 -3.2777
139 1 20.6676 39.5593 15.2065 1.39318
121 2 27.2812 36.6016 18.829 -3.35333
125 1 26.4545 36.9713 16.1122 -3.2777
132 1 28.9346 38.0804 17.0178 -3.28639
134 1 26.4545 39.1895 17.9234 -3.34499
135 1 25.6278 39.5593 15.2065 1.39318
130 2 23.9744 40.2987 18.829 -3.33744
131 1 23.1477 42.8867 17.9234 -3.33972
138 1 23.1477 40.6684 16.1122 -3.41392
133 2 28.9346 40.2987 18.829 -3.33744
136 1 25.6278 41.7775 17.0178 -3.30657
137 1 28.1079 40.6684 16.1122 -3.41392
141 2 25.6278 43.9958 18.829 -3.33148
144 1 28.1079 42.8867 17.9234 -3.33972
142 1 30.588 41.7775 17.0178 -3.30657
143 2 30.588 43.9958 18.829 -3.33148
