LAMMPS (29 Aug 2024 - Update 2)
#---------------------------------------------------------------------------------------------------
# Initilise important features of simulation
#---------------------------------------------------------------------------------------------------
units 		metal	# Use metals units (Ang, ps, eV, bar, etc.)
dimension 	3		# Run the simulation in three dimensions
boundary 	p p p	# Use periodic boundaries in all three dimensions
atom_style 	atomic	#
#box tilt large		# Allow larger than normal tilt factors

variable T_start equal 600
variable T_end equal 200
variable tstep equal 0.002
timestep ${tstep}
timestep 0.002

read_data   lammps.txt	# Read in atom coordinates from a file
Reading data file ...
  triclinic box = (0 0 0) to (9.9204335 11.091382 19.734581) with tilt (4.9602167 19.840867 37.710698)
WARNING: Triclinic box skew is large. LAMMPS will run inefficiently. (src/domain.cpp:221)
  1 by 1 by 1 MPI processor grid
  reading atoms ...
  144 atoms
  read_data CPU = 0.001 seconds

#---------------------------------------------------------------------------------------------------
# Define how the forces between the atoms will be modelled
#---------------------------------------------------------------------------------------------------
pair_style eam/alloy
pair_coeff * * Zope-Ti-Al-2003.eam.alloy.txt Al Al

#---------------------------------------------------------------------------------------------------
# Set behaviour of simulation
#---------------------------------------------------------------------------------------------------
group g_fixed type 2
36 atoms in group g_fixed
group g_other type 1
108 atoms in group g_other
fix f_freeze g_fixed setforce 0.0 0.0 0.0 	# Hold atoms of type 2 fixed in place
#fix f_constrain g_other setforce 0.0 0.0 NULL 	# All atoms of type 1 to move only in z direction

#---------------------------------------------------------------------------------------------------
# Specify what information to write out
#---------------------------------------------------------------------------------------------------
thermo_style custom step atoms temp pe ke etotal fmax
thermo_modify format 6 %20.10f
thermo 1000

#compute statom all stress/atom NULL
compute peatom all pe/atom
dump 1 all custom 100000 dump.* id type x y z c_peatom
dump_modify 1 first yes


#---------------------------------------------------------------------------------------------------
# Initial relaxation
#---------------------------------------------------------------------------------------------------
velocity all set 0.0 0.0 0.0

min_style 	cg
min_modify dmax 0.1
minimize 	0.0 1.0e-6 10000 100000
Neighbor list info ...
  update: every = 1 steps, delay = 0 steps, check = yes
  max neighbors/atom: 2000, page size: 100000
  master list distance cutoff = 8.724884
  ghost atom cutoff = 8.724884
  binsize = 4.362442, bins = 8 12 5
  1 neighbor lists, perpetual/occasional/extra = 1 0 0
  (1) pair eam/alloy, perpetual
      attributes: half, newton on
      pair build: half/bin/atomonly/newton/tri
      stencil: half/bin/3d/tri
      bin: standard
Per MPI rank memory allocation (min/avg/max) = 4.715 | 4.715 | 4.715 Mbytes
   Step        Atoms         Temp          PotEng         KinEng         TotEng          Fmax     
         0         144   0             -363.87349      0                  -363.8734879947  14.902847    
       107         144   0             -459.48416      0                  -459.4841597660  1.1677505e-07
Loop time of 0.0216378 on 1 procs for 107 steps with 144 atoms

99.6% CPU use with 1 MPI tasks x no OpenMP threads

Minimization stats:
  Stopping criterion = force tolerance
  Energy initial, next-to-last, final = 
     -363.873487994723  -459.484159766029  -459.484159766029
  Force two-norm initial, final = 63.779995 9.0739114e-07
  Force max component initial, final = 14.902847 1.1677505e-07
  Final line search alpha, max atom move = 1 1.1677505e-07
  Iterations, force evaluations = 107 192

MPI task timing breakdown:
Section |  min time  |  avg time  |  max time  |%varavg| %total
---------------------------------------------------------------
Pair    | 0.018915   | 0.018915   | 0.018915   |   0.0 | 87.42
Neigh   | 0.00095825 | 0.00095825 | 0.00095825 |   0.0 |  4.43
Comm    | 0.001101   | 0.001101   | 0.001101   |   0.0 |  5.09
Output  | 0          | 0          | 0          |   0.0 |  0.00
Modify  | 2.5917e-05 | 2.5917e-05 | 2.5917e-05 |   0.0 |  0.12
Other   |            | 0.0006376  |            |       |  2.95

Nlocal:            144 ave         144 max         144 min
Histogram: 1 0 0 0 0 0 0 0 0 0
Nghost:           3306 ave        3306 max        3306 min
Histogram: 1 0 0 0 0 0 0 0 0 0
Neighs:          13204 ave       13204 max       13204 min
Histogram: 1 0 0 0 0 0 0 0 0 0

Total # of neighbors = 13204
Ave neighs/atom = 91.694444
Neighbor list builds = 2
Dangerous builds = 0
#---------------------------------------------------------------------------------------------------
# Anneal boundary structures
#---------------------------------------------------------------------------------------------------
reset_timestep 100000
fix md g_other nvt temp ${T_start} ${T_end} $(100.0*v_tstep)
fix md g_other nvt temp 600 ${T_end} $(100.0*v_tstep)
fix md g_other nvt temp 600 200 $(100.0*v_tstep)
fix md g_other nvt temp 600 200 0.2000000000000000111

velocity all create ${T_start} 4928459 rot yes mom yes dist gaussian
velocity all create 600 4928459 rot yes mom yes dist gaussian
run 10000
Per MPI rank memory allocation (min/avg/max) = 4.972 | 4.972 | 4.972 Mbytes
   Step        Atoms         Temp          PotEng         KinEng         TotEng          Fmax     
    100000         144   600           -459.48416      11.09052           -448.3936393250  1.1677505e-07
    101000         144   572.54915     -451.575        10.583113          -440.9918837391  1.8161366    
    102000         144   604.39201     -451.183        11.171703          -440.0112996227  1.4472106    
    103000         144   533.51239     -452.85241      9.8615501          -442.9908616912  1.6000528    
    104000         144   498.90336     -452.33608      9.2218298          -443.1142461672  1.7547354    
    105000         144   490.31407     -454.08518      9.0630638          -445.0221197049  1.4265368    
    106000         144   473.40573     -454.05601      8.7505266          -445.3054794205  1.344283     
    107000         144   397.26377     -454.51645      7.3431033          -447.1733496081  1.6053764    
    108000         144   395.35206     -455.51138      7.3077667          -448.2036091993  1.2414696    
    109000         144   361.07251     -456.12136      6.6741367          -449.4472256273  0.9974257    
    110000         144   330.51859     -456.61849      6.109372           -450.5091145944  1.2931329    
Loop time of 0.981361 on 1 procs for 10000 steps with 144 atoms

Performance: 1760.819 ns/day, 0.014 hours/ns, 10189.926 timesteps/s, 1.467 Matom-step/s
99.8% CPU use with 1 MPI tasks x no OpenMP threads

MPI task timing breakdown:
Section |  min time  |  avg time  |  max time  |%varavg| %total
---------------------------------------------------------------
Pair    | 0.88911    | 0.88911    | 0.88911    |   0.0 | 90.60
Neigh   | 0.013015   | 0.013015   | 0.013015   |   0.0 |  1.33
Comm    | 0.056178   | 0.056178   | 0.056178   |   0.0 |  5.72
Output  | 4.2667e-05 | 4.2667e-05 | 4.2667e-05 |   0.0 |  0.00
Modify  | 0.0105     | 0.0105     | 0.0105     |   0.0 |  1.07
Other   |            | 0.01251    |            |       |  1.27

Nlocal:            144 ave         144 max         144 min
Histogram: 1 0 0 0 0 0 0 0 0 0
Nghost:           3298 ave        3298 max        3298 min
Histogram: 1 0 0 0 0 0 0 0 0 0
Neighs:          13213 ave       13213 max       13213 min
Histogram: 1 0 0 0 0 0 0 0 0 0

Total # of neighbors = 13213
Ave neighs/atom = 91.756944
Neighbor list builds = 26
Dangerous builds = 0
unfix md

#---------------------------------------------------------------------------------------------------
# Final relaxation
#---------------------------------------------------------------------------------------------------
velocity all set 0.0 0.0 0.0

min_style 	cg
min_modify dmax 0.1
minimize 	0.0 1.0e-6 10000 100000
Per MPI rank memory allocation (min/avg/max) = 6.097 | 6.097 | 6.097 Mbytes
   Step        Atoms         Temp          PotEng         KinEng         TotEng          Fmax     
    110000         144   0             -456.61849      0                  -456.6184865797  1.2931329    
    110068         144   0             -459.48416      0                  -459.4841597660  1.4862742e-07
Loop time of 0.0143095 on 1 procs for 68 steps with 144 atoms

98.5% CPU use with 1 MPI tasks x no OpenMP threads

Minimization stats:
  Stopping criterion = force tolerance
  Energy initial, next-to-last, final = 
     -456.618486579675   -459.48415976603  -459.484159766029
  Force two-norm initial, final = 5.5848318 8.6576907e-07
  Force max component initial, final = 1.2931329 1.4862742e-07
  Final line search alpha, max atom move = 1 1.4862742e-07
  Iterations, force evaluations = 68 134

MPI task timing breakdown:
Section |  min time  |  avg time  |  max time  |%varavg| %total
---------------------------------------------------------------
Pair    | 0.012942   | 0.012942   | 0.012942   |   0.0 | 90.44
Neigh   | 0          | 0          | 0          |   0.0 |  0.00
Comm    | 0.00074138 | 0.00074138 | 0.00074138 |   0.0 |  5.18
Output  | 0          | 0          | 0          |   0.0 |  0.00
Modify  | 1.9003e-05 | 1.9003e-05 | 1.9003e-05 |   0.0 |  0.13
Other   |            | 0.0006076  |            |       |  4.25

Nlocal:            144 ave         144 max         144 min
Histogram: 1 0 0 0 0 0 0 0 0 0
Nghost:           3286 ave        3286 max        3286 min
Histogram: 1 0 0 0 0 0 0 0 0 0
Neighs:          13190 ave       13190 max       13190 min
Histogram: 1 0 0 0 0 0 0 0 0 0

Total # of neighbors = 13190
Ave neighs/atom = 91.597222
Neighbor list builds = 0
Dangerous builds = 0

Total wall time: 0:00:01
