ITEM: TIMESTEP
67
ITEM: NUMBER OF ATOMS
144
ITEM: BOX BOUNDS xy xz yz pp pp pp
0.0000000000000000e+00 3.4101490012809570e+01 4.9602167291359365e+00
0.0000000000000000e+00 4.7415657150025339e+01 1.9220839825401761e+01
0.0000000000000000e+00 1.9734580741297954e+01 3.6324275360545727e+01
ITEM: ATOMS id type x y z c_peatom
70 2 0 0 0 -3.23008
82 2 1.65341 3.69713 0 -3.2832
69 2 4.96022 0 0 -3.23008
81 2 6.61362 3.69713 0 -3.2832
80 2 4.13351 4.80627 0.905608 -3.28175
86 1 4.20781 7.20563 2.48607 -3.26421
88 1 6.76581 8.27151 3.20313 -3.1555
91 2 9.09373 4.80627 0.905608 -3.28175
92 1 9.16803 7.20563 2.48607 -3.26421
93 1 6.63902 5.98009 1.58296 -3.26424
94 2 5.78692 8.50339 0.905608 -3.24787
98 1 9.43683 9.60847 4.1968 -3.22042
76 1 11.5992 5.98009 1.58296 -3.26424
87 1 14.3971 9.60847 4.1968 -3.22042
89 1 11.726 8.27151 3.20313 -3.1555
96 2 13.2272 7.39425 0 -3.2832
104 2 10.7471 8.50339 0.905608 -3.24787
68 2 7.44033 12.2005 0.905608 -3.31886
100 1 5.77958 10.9165 2.39633 -3.14113
102 1 8.41186 12.211 3.4621 -3.23006
106 1 8.28156 9.7665 1.71626 -3.35283
109 1 8.22106 14.6818 4.9566 -3.17729
77 2 12.4005 12.2005 0.905608 -3.31886
79 1 9.9165 13.4205 1.61513 -3.25454
90 1 13.2418 9.7665 1.71626 -3.35283
97 1 13.1813 14.6818 4.9566 -3.17729
103 1 13.3721 12.211 3.4621 -3.23006
105 1 10.7398 10.9165 2.39633 -3.14113
108 1 10.7563 13.2444 4.09497 -3.22186
67 1 14.8767 13.4205 1.61513 -3.25454
101 1 15.7165 13.2444 4.09497 -3.22186
72 1 7.4497 14.5738 2.48736 -3.25688
74 1 10.0151 15.7764 3.30597 -3.24431
78 1 12.4099 14.5738 2.48736 -3.25688
84 1 12.5174 16.9669 4.06296 -3.21104
73 1 17.4776 16.9669 4.06296 -3.21104
75 1 14.9754 15.7764 3.30597 -3.24431
2 1 7.22987 12.5421 6.01513 -2.93282
9 1 9.71345 13.3429 6.55713 -3.17386
99 1 7.02574 10.5019 4.51144 -2.8817
1 1 12.1901 12.5421 6.01513 -2.93282
3 1 14.6737 13.3429 6.55713 -3.17386
83 1 11.986 10.5019 4.51144 -2.8817
7 1 9.67447 15.8247 8.25614 -3.26882
5 1 10.6563 15.7749 5.77912 -3.22729
6 1 12.1753 14.7178 7.47446 -3.15088
8 2 12.0905 17.053 8.96168 -3.2647
13 1 14.6347 15.8247 8.25614 -3.26882
15 1 13.0967 17.055 6.57901 -3.15347
17 1 10.483 18.3816 7.36309 -3.26176
85 1 10.1654 18.1854 4.91698 -3.17961
4 1 17.1355 14.7178 7.47446 -3.15088
10 2 17.0507 17.053 8.96168 -3.2647
14 1 15.6165 15.7749 5.77912 -3.22729
16 1 15.4432 18.3816 7.36309 -3.26176
20 1 18.0569 17.055 6.57901 -3.15347
71 1 15.1256 18.1854 4.91698 -3.17961
22 1 10.8481 20.9554 6.55739 -3.03855
34 1 12.9141 19.5466 8.25194 -3.26208
35 1 12.7828 19.3323 5.69479 -3.14067
36 1 13.5168 21.8909 7.17843 -3.22256
18 1 17.8743 19.5466 8.25194 -3.26208
21 1 17.743 19.3323 5.69479 -3.14067
31 2 15.3973 20.7501 8.96168 -3.25357
41 1 18.477 21.8909 7.17843 -3.22256
42 1 16.1812 23.2341 8.33706 -3.20217
44 1 15.8083 20.9554 6.55739 -3.03855
19 2 20.3576 20.7501 8.96168 -3.25357
46 1 21.1414 23.2341 8.33706 -3.20217
53 2 13.7439 24.4473 8.96168 -3.26322
43 2 18.7042 24.4473 8.96168 -3.26322
32 2 12.9172 21.8593 9.86729 -3.29233
33 2 15.3973 22.9684 10.7729 -3.26322
40 2 17.8774 21.8593 9.86729 -3.29233
37 2 20.3576 22.9684 10.7729 -3.26322
52 1 12.9601 24.1815 11.3975 -3.20217
54 2 13.7439 26.6655 10.7729 -3.25357
38 1 17.9203 24.1815 11.3975 -3.20217
49 1 15.6245 25.5248 12.5561 -3.22256
51 1 16.3585 28.0834 14.0398 -3.14067
56 1 18.2932 26.4603 13.1772 -3.03855
57 2 18.7042 26.6655 10.7729 -3.25357
58 1 16.2272 27.869 11.4826 -3.26208
60 2 16.224 25.5564 9.86729 -3.29233
39 1 20.5847 25.5248 12.5561 -3.22256
45 2 21.1843 25.5564 9.86729 -3.29233
50 1 23.2534 26.4603 13.1772 -3.03855
55 1 21.3187 28.0834 14.0398 -3.14067
62 1 21.1874 27.869 11.4826 -3.26208
23 2 17.0507 30.3627 10.7729 -3.2647
25 1 16.966 32.6978 12.2601 -3.15088
59 1 18.6582 29.034 12.3715 -3.26176
65 1 18.485 31.6407 13.9555 -3.22729
66 1 16.0446 30.3607 13.1556 -3.15347
11 2 19.5309 29.2535 9.86729 -3.3042
12 2 22.011 30.3627 10.7729 -3.2647
27 1 21.9262 32.6978 12.2601 -3.15088
30 1 19.4668 31.5909 11.4784 -3.26882
61 1 21.0048 30.3607 13.1556 -3.15347
63 1 23.6185 29.034 12.3715 -3.26176
64 1 23.4452 31.6407 13.9555 -3.22729
117 1 23.9361 29.2303 14.8176 -3.17961
24 1 24.427 31.5909 11.4784 -3.26882
26 2 24.4911 29.2535 9.86729 -3.3042
28 1 19.4278 34.0728 13.1774 -3.17386
29 1 21.9114 34.8735 13.7195 -2.93282
115 1 20.9202 32.7339 14.778 -3.17729
127 1 22.1155 36.9138 15.2231 -2.8817
47 1 26.8716 34.8735 13.7195 -2.93282
48 1 24.388 34.0728 13.1774 -3.17386
129 1 25.8804 32.7339 14.778 -3.17729
140 1 27.0758 36.9138 15.2231 -2.8817
107 1 18.9758 29.2303 14.8176 -3.17961
114 1 19.1261 31.6393 16.4286 -3.24431
116 1 16.6239 30.4488 15.6716 -3.21104
111 1 21.5841 30.4488 15.6716 -3.21104
112 1 21.6916 32.8419 17.2472 -3.25688
113 1 24.0863 31.6393 16.4286 -3.24431
120 1 26.6518 32.8419 17.2472 -3.25688
110 1 19.2248 33.9952 18.1194 -3.25454
128 1 18.385 34.1712 15.6396 -3.22186
118 2 21.7009 35.2151 18.829 -3.31886
119 1 20.8597 37.6492 18.0183 -3.35283
122 1 24.185 33.9952 18.1194 -3.25454
123 1 23.3452 34.1712 15.6396 -3.22186
124 1 23.3617 36.4992 17.3383 -3.14113
126 1 20.7294 35.2046 16.2725 -3.23006
121 2 26.6612 35.2151 18.829 -3.31886
125 1 25.6896 35.2046 16.2725 -3.23006
132 1 28.3219 36.4992 17.3383 -3.14113
134 1 25.8199 37.6492 18.0183 -3.35283
130 2 23.3544 38.9123 18.829 -3.24787
131 1 22.5022 41.4356 18.1516 -3.26424
138 1 22.3755 39.1441 16.5315 -3.1555
139 1 19.7044 37.8072 15.5378 -3.22042
133 2 28.3146 38.9123 18.829 -3.24787
135 1 24.6647 37.8072 15.5378 -3.22042
136 1 24.9335 40.21 17.2485 -3.26421
137 1 27.3357 39.1441 16.5315 -3.1555
141 2 25.0078 42.6094 18.829 -3.28175
144 1 27.4625 41.4356 18.1516 -3.26424
142 1 29.8937 40.21 17.2485 -3.26421
143 2 29.968 42.6094 18.829 -3.28175
95 2 27.4879 43.7185 19.7346 -3.2832
