LAMMPS (29 Aug 2024 - Update 2)
#---------------------------------------------------------------------------------------------------
# Initilise important features of simulation
#---------------------------------------------------------------------------------------------------
units 		metal	# Use metals units (Ang, ps, eV, bar, etc.)
dimension 	3		# Run the simulation in three dimensions
boundary 	p p p	# Use periodic boundaries in all three dimensions
atom_style 	atomic	#
#box tilt large		# Allow larger than normal tilt factors

variable T_start equal 600
variable T_end equal 200
variable tstep equal 0.002
timestep ${tstep}
timestep 0.002

read_data   lammps.txt	# Read in atom coordinates from a file
Reading data file ...
  triclinic box = (0 0 0) to (9.9204335 11.091382 20.734581) with tilt (4.9602167 18.600813 37.710698)
WARNING: Triclinic box skew is large. LAMMPS will run inefficiently. (src/domain.cpp:221)
  1 by 1 by 1 MPI processor grid
  reading atoms ...
  144 atoms
  read_data CPU = 0.001 seconds

#---------------------------------------------------------------------------------------------------
# Define how the forces between the atoms will be modelled
#---------------------------------------------------------------------------------------------------
pair_style eam/alloy
pair_coeff * * Zope-Ti-Al-2003.eam.alloy.txt Al Al

#---------------------------------------------------------------------------------------------------
# Set behaviour of simulation
#---------------------------------------------------------------------------------------------------
group g_fixed type 2
36 atoms in group g_fixed
group g_other type 1
108 atoms in group g_other
fix f_freeze g_fixed setforce 0.0 0.0 0.0 	# Hold atoms of type 2 fixed in place
#fix f_constrain g_other setforce 0.0 0.0 NULL 	# All atoms of type 1 to move only in z direction

#---------------------------------------------------------------------------------------------------
# Specify what information to write out
#---------------------------------------------------------------------------------------------------
thermo_style custom step atoms temp pe ke etotal fmax
thermo_modify format 6 %20.10f
thermo 1000

#compute statom all stress/atom NULL
compute peatom all pe/atom
dump 1 all custom 100000 dump.* id type x y z c_peatom
dump_modify 1 first yes


#---------------------------------------------------------------------------------------------------
# Initial relaxation
#---------------------------------------------------------------------------------------------------
velocity all set 0.0 0.0 0.0

min_style 	cg
min_modify dmax 0.1
minimize 	0.0 1.0e-6 10000 100000
Neighbor list info ...
  update: every = 1 steps, delay = 0 steps, check = yes
  max neighbors/atom: 2000, page size: 100000
  master list distance cutoff = 8.724884
  ghost atom cutoff = 8.724884
  binsize = 4.362442, bins = 8 12 5
  1 neighbor lists, perpetual/occasional/extra = 1 0 0
  (1) pair eam/alloy, perpetual
      attributes: half, newton on
      pair build: half/bin/atomonly/newton/tri
      stencil: half/bin/3d/tri
      bin: standard
Per MPI rank memory allocation (min/avg/max) = 4.713 | 4.713 | 4.713 Mbytes
   Step        Atoms         Temp          PotEng         KinEng         TotEng          Fmax     
         0         144   0             -411.48245      0                  -411.4824501424  10.411659    
        71         144   0             -466.81911      0                  -466.8191140375  1.4390193e-07
Loop time of 0.0139012 on 1 procs for 71 steps with 144 atoms

99.2% CPU use with 1 MPI tasks x no OpenMP threads

Minimization stats:
  Stopping criterion = force tolerance
  Energy initial, next-to-last, final = 
     -411.482450142351  -466.819114037553   -466.81911403755
  Force two-norm initial, final = 46.045612 8.72962e-07
  Force max component initial, final = 10.411659 1.4390193e-07
  Final line search alpha, max atom move = 1 1.4390193e-07
  Iterations, force evaluations = 71 132

MPI task timing breakdown:
Section |  min time  |  avg time  |  max time  |%varavg| %total
---------------------------------------------------------------
Pair    | 0.012181   | 0.012181   | 0.012181   |   0.0 | 87.63
Neigh   | 0.00046229 | 0.00046229 | 0.00046229 |   0.0 |  3.33
Comm    | 0.00073804 | 0.00073804 | 0.00073804 |   0.0 |  5.31
Output  | 0          | 0          | 0          |   0.0 |  0.00
Modify  | 1.9454e-05 | 1.9454e-05 | 1.9454e-05 |   0.0 |  0.14
Other   |            | 0.0005004  |            |       |  3.60

Nlocal:            144 ave         144 max         144 min
Histogram: 1 0 0 0 0 0 0 0 0 0
Nghost:           3202 ave        3202 max        3202 min
Histogram: 1 0 0 0 0 0 0 0 0 0
Neighs:          12696 ave       12696 max       12696 min
Histogram: 1 0 0 0 0 0 0 0 0 0

Total # of neighbors = 12696
Ave neighs/atom = 88.166667
Neighbor list builds = 1
Dangerous builds = 0
#---------------------------------------------------------------------------------------------------
# Anneal boundary structures
#---------------------------------------------------------------------------------------------------
reset_timestep 100000
fix md g_other nvt temp ${T_start} ${T_end} $(100.0*v_tstep)
fix md g_other nvt temp 600 ${T_end} $(100.0*v_tstep)
fix md g_other nvt temp 600 200 $(100.0*v_tstep)
fix md g_other nvt temp 600 200 0.2000000000000000111

velocity all create ${T_start} 4928459 rot yes mom yes dist gaussian
velocity all create 600 4928459 rot yes mom yes dist gaussian
run 10000
Per MPI rank memory allocation (min/avg/max) = 4.97 | 4.97 | 4.97 Mbytes
   Step        Atoms         Temp          PotEng         KinEng         TotEng          Fmax     
    100000         144   600           -466.81911      11.09052           -455.7285935965  1.4390194e-07
    101000         144   564.74826     -459.69136      10.43892           -449.2524366622  1.3050904    
    102000         144   565.40171     -460.33274      10.450999          -449.8817419100  1.3595388    
    103000         144   551.88769     -460.65796      10.201203          -450.4567530706  1.3866073    
    104000         144   510.94206     -462.05546      9.4443556          -452.6111073845  1.1377615    
    105000         144   539.09896     -462.32528      9.9648133          -452.3604649065  1.2818688    
    106000         144   445.91025     -462.98885      8.2422946          -454.7465558429  1.1119875    
    107000         144   450.45293     -463.84792      8.3262624          -455.5216605720  0.89783606   
    108000         144   402.55259     -464.49903      7.4408629          -457.0581693632  1.1960825    
    109000         144   368.63697     -464.91457      6.8139598          -458.1006103647  1.0602866    
    110000         144   323.27319     -465.30137      5.9754466          -459.3259206621  1.0649901    
Loop time of 0.961808 on 1 procs for 10000 steps with 144 atoms

Performance: 1796.617 ns/day, 0.013 hours/ns, 10397.088 timesteps/s, 1.497 Matom-step/s
99.7% CPU use with 1 MPI tasks x no OpenMP threads

MPI task timing breakdown:
Section |  min time  |  avg time  |  max time  |%varavg| %total
---------------------------------------------------------------
Pair    | 0.85144    | 0.85144    | 0.85144    |   0.0 | 88.52
Neigh   | 0.03154    | 0.03154    | 0.03154    |   0.0 |  3.28
Comm    | 0.055613   | 0.055613   | 0.055613   |   0.0 |  5.78
Output  | 4.9002e-05 | 4.9002e-05 | 4.9002e-05 |   0.0 |  0.01
Modify  | 0.010631   | 0.010631   | 0.010631   |   0.0 |  1.11
Other   |            | 0.01254    |            |       |  1.30

Nlocal:            144 ave         144 max         144 min
Histogram: 1 0 0 0 0 0 0 0 0 0
Nghost:           3201 ave        3201 max        3201 min
Histogram: 1 0 0 0 0 0 0 0 0 0
Neighs:          12612 ave       12612 max       12612 min
Histogram: 1 0 0 0 0 0 0 0 0 0

Total # of neighbors = 12612
Ave neighs/atom = 87.583333
Neighbor list builds = 66
Dangerous builds = 0
unfix md

#---------------------------------------------------------------------------------------------------
# Final relaxation
#---------------------------------------------------------------------------------------------------
velocity all set 0.0 0.0 0.0

min_style 	cg
min_modify dmax 0.1
minimize 	0.0 1.0e-6 10000 100000
Per MPI rank memory allocation (min/avg/max) = 6.095 | 6.095 | 6.095 Mbytes
   Step        Atoms         Temp          PotEng         KinEng         TotEng          Fmax     
    110000         144   0             -465.30137      0                  -465.3013672680  1.0649901    
    110066         144   0             -468.17137      0                  -468.1713733879  1.655869e-07 
Loop time of 0.0131373 on 1 procs for 66 steps with 144 atoms

98.2% CPU use with 1 MPI tasks x no OpenMP threads

Minimization stats:
  Stopping criterion = force tolerance
  Energy initial, next-to-last, final = 
     -465.301367268028  -468.171373387928  -468.171373387929
  Force two-norm initial, final = 5.2643254 9.8082076e-07
  Force max component initial, final = 1.0649901 1.655869e-07
  Final line search alpha, max atom move = 1 1.655869e-07
  Iterations, force evaluations = 66 130

MPI task timing breakdown:
Section |  min time  |  avg time  |  max time  |%varavg| %total
---------------------------------------------------------------
Pair    | 0.011782   | 0.011782   | 0.011782   |   0.0 | 89.68
Neigh   | 0          | 0          | 0          |   0.0 |  0.00
Comm    | 0.00070358 | 0.00070358 | 0.00070358 |   0.0 |  5.36
Output  | 0          | 0          | 0          |   0.0 |  0.00
Modify  | 1.8159e-05 | 1.8159e-05 | 1.8159e-05 |   0.0 |  0.14
Other   |            | 0.0006334  |            |       |  4.82

Nlocal:            144 ave         144 max         144 min
Histogram: 1 0 0 0 0 0 0 0 0 0
Nghost:           3218 ave        3218 max        3218 min
Histogram: 1 0 0 0 0 0 0 0 0 0
Neighs:          12663 ave       12663 max       12663 min
Histogram: 1 0 0 0 0 0 0 0 0 0

Total # of neighbors = 12663
Ave neighs/atom = 87.9375
Neighbor list builds = 0
Dangerous builds = 0

Total wall time: 0:00:01
