LAMMPS (29 Aug 2024 - Update 2)
#---------------------------------------------------------------------------------------------------
# Initilise important features of simulation
#---------------------------------------------------------------------------------------------------
units 		metal	# Use metals units (Ang, ps, eV, bar, etc.)
dimension 	3		# Run the simulation in three dimensions
boundary 	p p p	# Use periodic boundaries in all three dimensions
atom_style 	atomic	#
#box tilt large		# Allow larger than normal tilt factors

variable T_start equal 600
variable T_end equal 200
variable tstep equal 0.002
timestep ${tstep}
timestep 0.002

read_data   lammps.txt	# Read in atom coordinates from a file
Reading data file ...
  triclinic box = (0 0 0) to (9.9204335 11.091382 23.734581) with tilt (4.9602167 16.740731 28.005739)
WARNING: Triclinic box skew is large. LAMMPS will run inefficiently. (src/domain.cpp:221)
  1 by 1 by 1 MPI processor grid
  reading atoms ...
  144 atoms
  read_data CPU = 0.001 seconds

#---------------------------------------------------------------------------------------------------
# Define how the forces between the atoms will be modelled
#---------------------------------------------------------------------------------------------------
pair_style eam/alloy
pair_coeff * * Zope-Ti-Al-2003.eam.alloy.txt Al Al

#---------------------------------------------------------------------------------------------------
# Set behaviour of simulation
#---------------------------------------------------------------------------------------------------
group g_fixed type 2
36 atoms in group g_fixed
group g_other type 1
108 atoms in group g_other
fix f_freeze g_fixed setforce 0.0 0.0 0.0 	# Hold atoms of type 2 fixed in place
#fix f_constrain g_other setforce 0.0 0.0 NULL 	# All atoms of type 1 to move only in z direction

#---------------------------------------------------------------------------------------------------
# Specify what information to write out
#---------------------------------------------------------------------------------------------------
thermo_style custom step atoms temp pe ke etotal fmax
thermo_modify format 6 %20.10f
thermo 1000

#compute statom all stress/atom NULL
compute peatom all pe/atom
dump 1 all custom 100000 dump.* id type x y z c_peatom
dump_modify 1 first yes


#---------------------------------------------------------------------------------------------------
# Initial relaxation
#---------------------------------------------------------------------------------------------------
velocity all set 0.0 0.0 0.0

min_style 	cg
min_modify dmax 0.1
minimize 	0.0 1.0e-6 10000 100000
Neighbor list info ...
  update: every = 1 steps, delay = 0 steps, check = yes
  max neighbors/atom: 2000, page size: 100000
  master list distance cutoff = 8.724884
  ghost atom cutoff = 8.724884
  binsize = 4.362442, bins = 8 9 6
  1 neighbor lists, perpetual/occasional/extra = 1 0 0
  (1) pair eam/alloy, perpetual
      attributes: half, newton on
      pair build: half/bin/atomonly/newton/tri
      stencil: half/bin/3d/tri
      bin: standard
Per MPI rank memory allocation (min/avg/max) = 4.649 | 4.649 | 4.649 Mbytes
   Step        Atoms         Temp          PotEng         KinEng         TotEng          Fmax     
         0         144   0             -468.16796      0                  -468.1679558358  1.8118412    
        69         144   0             -474.13292      0                  -474.1329243881  1.2238831e-07
Loop time of 0.0108342 on 1 procs for 69 steps with 144 atoms

99.3% CPU use with 1 MPI tasks x no OpenMP threads

Minimization stats:
  Stopping criterion = force tolerance
  Energy initial, next-to-last, final = 
     -468.167955835828   -474.13292438806  -474.132924388057
  Force two-norm initial, final = 6.8184414 9.0400282e-07
  Force max component initial, final = 1.8118412 1.2238831e-07
  Final line search alpha, max atom move = 1 1.2238831e-07
  Iterations, force evaluations = 69 132

MPI task timing breakdown:
Section |  min time  |  avg time  |  max time  |%varavg| %total
---------------------------------------------------------------
Pair    | 0.00986    | 0.00986    | 0.00986    |   0.0 | 91.01
Neigh   | 0          | 0          | 0          |   0.0 |  0.00
Comm    | 0.00051554 | 0.00051554 | 0.00051554 |   0.0 |  4.76
Output  | 0          | 0          | 0          |   0.0 |  0.00
Modify  | 1.9798e-05 | 1.9798e-05 | 1.9798e-05 |   0.0 |  0.18
Other   |            | 0.0004389  |            |       |  4.05

Nlocal:            144 ave         144 max         144 min
Histogram: 1 0 0 0 0 0 0 0 0 0
Nghost:           2286 ave        2286 max        2286 min
Histogram: 1 0 0 0 0 0 0 0 0 0
Neighs:          11372 ave       11372 max       11372 min
Histogram: 1 0 0 0 0 0 0 0 0 0

Total # of neighbors = 11372
Ave neighs/atom = 78.972222
Neighbor list builds = 0
Dangerous builds = 0
#---------------------------------------------------------------------------------------------------
# Anneal boundary structures
#---------------------------------------------------------------------------------------------------
reset_timestep 100000
fix md g_other nvt temp ${T_start} ${T_end} $(100.0*v_tstep)
fix md g_other nvt temp 600 ${T_end} $(100.0*v_tstep)
fix md g_other nvt temp 600 200 $(100.0*v_tstep)
fix md g_other nvt temp 600 200 0.2000000000000000111

velocity all create ${T_start} 4928459 rot yes mom yes dist gaussian
velocity all create 600 4928459 rot yes mom yes dist gaussian
run 10000
Per MPI rank memory allocation (min/avg/max) = 4.905 | 4.905 | 4.905 Mbytes
   Step        Atoms         Temp          PotEng         KinEng         TotEng          Fmax     
    100000         144   600           -474.13292      11.09052           -463.0424039471  1.2238831e-07
    101000         144   566.42055     -466.46321      10.469831          -455.9933802421  1.5707581    
    102000         144   584.80893     -466.36136      10.809726          -455.5516387642  1.2994129    
    103000         144   526.5863      -467.52607      9.7335269          -457.7925479030  1.1722634    
    104000         144   529.1271      -468.97354      9.7804916          -459.1930482510  1.1433094    
    105000         144   507.89078     -468.57728      9.3879552          -459.1893292011  1.2776909    
    106000         144   488.42691     -470.18331      9.0281811          -461.1551256041  0.98620875   
    107000         144   419.60461     -470.52798      7.7560558          -462.7719274088  0.93504606   
    108000         144   403.66955     -471.74437      7.4615089          -464.2828645790  0.81019657   
    109000         144   374.78417     -471.79444      6.9275859          -464.8668535010  1.0345081    
    110000         144   342.54774     -472.12114      6.3317212          -465.7894170974  0.75919422   
Loop time of 0.842229 on 1 procs for 10000 steps with 144 atoms

Performance: 2051.699 ns/day, 0.012 hours/ns, 11873.259 timesteps/s, 1.710 Matom-step/s
99.7% CPU use with 1 MPI tasks x no OpenMP threads

MPI task timing breakdown:
Section |  min time  |  avg time  |  max time  |%varavg| %total
---------------------------------------------------------------
Pair    | 0.73336    | 0.73336    | 0.73336    |   0.0 | 87.07
Neigh   | 0.047886   | 0.047886   | 0.047886   |   0.0 |  5.69
Comm    | 0.040075   | 0.040075   | 0.040075   |   0.0 |  4.76
Output  | 4.171e-05  | 4.171e-05  | 4.171e-05  |   0.0 |  0.00
Modify  | 0.010676   | 0.010676   | 0.010676   |   0.0 |  1.27
Other   |            | 0.01019    |            |       |  1.21

Nlocal:            144 ave         144 max         144 min
Histogram: 1 0 0 0 0 0 0 0 0 0
Nghost:           2275 ave        2275 max        2275 min
Histogram: 1 0 0 0 0 0 0 0 0 0
Neighs:          11167 ave       11167 max       11167 min
Histogram: 1 0 0 0 0 0 0 0 0 0

Total # of neighbors = 11167
Ave neighs/atom = 77.548611
Neighbor list builds = 103
Dangerous builds = 0
unfix md

#---------------------------------------------------------------------------------------------------
# Final relaxation
#---------------------------------------------------------------------------------------------------
velocity all set 0.0 0.0 0.0

min_style 	cg
min_modify dmax 0.1
minimize 	0.0 1.0e-6 10000 100000
Per MPI rank memory allocation (min/avg/max) = 6.03 | 6.03 | 6.03 Mbytes
   Step        Atoms         Temp          PotEng         KinEng         TotEng          Fmax     
    110000         144   0             -472.12114      0                  -472.1211382680  0.75919422   
    110068         144   0             -475.05458      0                  -475.0545756500  1.3714246e-07
Loop time of 0.0118075 on 1 procs for 68 steps with 144 atoms

98.6% CPU use with 1 MPI tasks x no OpenMP threads

Minimization stats:
  Stopping criterion = force tolerance
  Energy initial, next-to-last, final = 
      -472.12113826797  -475.054575649993  -475.054575649992
  Force two-norm initial, final = 4.6922738 9.3555787e-07
  Force max component initial, final = 0.75919422 1.3714246e-07
  Final line search alpha, max atom move = 1 1.3714246e-07
  Iterations, force evaluations = 68 134

MPI task timing breakdown:
Section |  min time  |  avg time  |  max time  |%varavg| %total
---------------------------------------------------------------
Pair    | 0.010711   | 0.010711   | 0.010711   |   0.0 | 90.71
Neigh   | 0          | 0          | 0          |   0.0 |  0.00
Comm    | 0.00053142 | 0.00053142 | 0.00053142 |   0.0 |  4.50
Output  | 0          | 0          | 0          |   0.0 |  0.00
Modify  | 2.038e-05  | 2.038e-05  | 2.038e-05  |   0.0 |  0.17
Other   |            | 0.0005448  |            |       |  4.61

Nlocal:            144 ave         144 max         144 min
Histogram: 1 0 0 0 0 0 0 0 0 0
Nghost:           2283 ave        2283 max        2283 min
Histogram: 1 0 0 0 0 0 0 0 0 0
Neighs:          11153 ave       11153 max       11153 min
Histogram: 1 0 0 0 0 0 0 0 0 0

Total # of neighbors = 11153
Ave neighs/atom = 77.451389
Neighbor list builds = 0
Dangerous builds = 0

Total wall time: 0:00:00
