LAMMPS (29 Aug 2024 - Update 2)
#---------------------------------------------------------------------------------------------------
# Initilise important features of simulation
#---------------------------------------------------------------------------------------------------
units 		metal	# Use metals units (Ang, ps, eV, bar, etc.)
dimension 	3		# Run the simulation in three dimensions
boundary 	p p p	# Use periodic boundaries in all three dimensions
atom_style 	atomic	#
#box tilt large		# Allow larger than normal tilt factors

variable T_start equal 600
variable T_end equal 200
variable tstep equal 0.002
timestep ${tstep}
timestep 0.002

read_data   lammps.txt	# Read in atom coordinates from a file
Reading data file ...
  triclinic box = (0 0 0) to (9.9204335 11.091382 20.734581) with tilt (4.9602167 17.980786 33.55143)
WARNING: Triclinic box skew is large. LAMMPS will run inefficiently. (src/domain.cpp:221)
  1 by 1 by 1 MPI processor grid
  reading atoms ...
  144 atoms
  read_data CPU = 0.001 seconds

#---------------------------------------------------------------------------------------------------
# Define how the forces between the atoms will be modelled
#---------------------------------------------------------------------------------------------------
pair_style eam/alloy
pair_coeff * * Zope-Ti-Al-2003.eam.alloy.txt Al Al

#---------------------------------------------------------------------------------------------------
# Set behaviour of simulation
#---------------------------------------------------------------------------------------------------
group g_fixed type 2
36 atoms in group g_fixed
group g_other type 1
108 atoms in group g_other
fix f_freeze g_fixed setforce 0.0 0.0 0.0 	# Hold atoms of type 2 fixed in place
#fix f_constrain g_other setforce 0.0 0.0 NULL 	# All atoms of type 1 to move only in z direction

#---------------------------------------------------------------------------------------------------
# Specify what information to write out
#---------------------------------------------------------------------------------------------------
thermo_style custom step atoms temp pe ke etotal fmax
thermo_modify format 6 %20.10f
thermo 1000

#compute statom all stress/atom NULL
compute peatom all pe/atom
dump 1 all custom 100000 dump.* id type x y z c_peatom
dump_modify 1 first yes


#---------------------------------------------------------------------------------------------------
# Initial relaxation
#---------------------------------------------------------------------------------------------------
velocity all set 0.0 0.0 0.0

min_style 	cg
min_modify dmax 0.1
minimize 	0.0 1.0e-6 10000 100000
Neighbor list info ...
  update: every = 1 steps, delay = 0 steps, check = yes
  max neighbors/atom: 2000, page size: 100000
  master list distance cutoff = 8.724884
  ghost atom cutoff = 8.724884
  binsize = 4.362442, bins = 8 11 5
  1 neighbor lists, perpetual/occasional/extra = 1 0 0
  (1) pair eam/alloy, perpetual
      attributes: half, newton on
      pair build: half/bin/atomonly/newton/tri
      stencil: half/bin/3d/tri
      bin: standard
Per MPI rank memory allocation (min/avg/max) = 4.701 | 4.701 | 4.701 Mbytes
   Step        Atoms         Temp          PotEng         KinEng         TotEng          Fmax     
         0         144   0             -440.02674      0                  -440.0267365080  9.3193458    
        51         144   0             -473.75197      0                  -473.7519747476  1.4388252e-07
Loop time of 0.00999317 on 1 procs for 51 steps with 144 atoms

97.7% CPU use with 1 MPI tasks x no OpenMP threads

Minimization stats:
  Stopping criterion = force tolerance
  Energy initial, next-to-last, final = 
     -440.026736508028  -473.751974747625  -473.751974747624
  Force two-norm initial, final = 35.755409 8.4529101e-07
  Force max component initial, final = 9.3193458 1.4388252e-07
  Final line search alpha, max atom move = 1 1.4388252e-07
  Iterations, force evaluations = 51 96

MPI task timing breakdown:
Section |  min time  |  avg time  |  max time  |%varavg| %total
---------------------------------------------------------------
Pair    | 0.0089278  | 0.0089278  | 0.0089278  |   0.0 | 89.34
Neigh   | 0          | 0          | 0          |   0.0 |  0.00
Comm    | 0.00052279 | 0.00052279 | 0.00052279 |   0.0 |  5.23
Output  | 0          | 0          | 0          |   0.0 |  0.00
Modify  | 1.5502e-05 | 1.5502e-05 | 1.5502e-05 |   0.0 |  0.16
Other   |            | 0.0005271  |            |       |  5.27

Nlocal:            144 ave         144 max         144 min
Histogram: 1 0 0 0 0 0 0 0 0 0
Nghost:           3060 ave        3060 max        3060 min
Histogram: 1 0 0 0 0 0 0 0 0 0
Neighs:          12984 ave       12984 max       12984 min
Histogram: 1 0 0 0 0 0 0 0 0 0

Total # of neighbors = 12984
Ave neighs/atom = 90.166667
Neighbor list builds = 0
Dangerous builds = 0
#---------------------------------------------------------------------------------------------------
# Anneal boundary structures
#---------------------------------------------------------------------------------------------------
reset_timestep 100000
fix md g_other nvt temp ${T_start} ${T_end} $(100.0*v_tstep)
fix md g_other nvt temp 600 ${T_end} $(100.0*v_tstep)
fix md g_other nvt temp 600 200 $(100.0*v_tstep)
fix md g_other nvt temp 600 200 0.2000000000000000111

velocity all create ${T_start} 4928459 rot yes mom yes dist gaussian
velocity all create 600 4928459 rot yes mom yes dist gaussian
run 10000
Per MPI rank memory allocation (min/avg/max) = 4.957 | 4.957 | 4.957 Mbytes
   Step        Atoms         Temp          PotEng         KinEng         TotEng          Fmax     
    100000         144   600           -473.75197      11.09052           -462.6614543066  1.4388253e-07
    101000         144   546.33101     -466.02945      10.098492          -455.9309606594  1.6443633    
    102000         144   592.0891      -466.75265      10.944294          -455.8083576297  1.6534946    
    103000         144   509.73922     -468.07296      9.4221221          -458.6508407884  1.2218398    
    104000         144   492.772       -468.33437      9.1084966          -459.2258697303  1.4557625    
    105000         144   457.09868     -469.25457      8.4491038          -460.8054682044  1.1441       
    106000         144   441.24386     -468.61347      8.1560402          -460.4574342169  1.0797635    
    107000         144   429.76699     -469.8064       7.9438993          -461.8625039422  1.2716638    
    108000         144   405.69812     -470.55319      7.4990055          -463.0541854355  0.8521243    
    109000         144   361.20166     -470.47184      6.676524           -463.7953193807  1.19813      
    110000         144   327.49204     -471.1765       6.0534286          -465.1230741956  0.91255075   
Loop time of 0.901249 on 1 procs for 10000 steps with 144 atoms

Performance: 1917.340 ns/day, 0.013 hours/ns, 11095.715 timesteps/s, 1.598 Matom-step/s
99.7% CPU use with 1 MPI tasks x no OpenMP threads

MPI task timing breakdown:
Section |  min time  |  avg time  |  max time  |%varavg| %total
---------------------------------------------------------------
Pair    | 0.8118     | 0.8118     | 0.8118     |   0.0 | 90.07
Neigh   | 0.014654   | 0.014654   | 0.014654   |   0.0 |  1.63
Comm    | 0.051995   | 0.051995   | 0.051995   |   0.0 |  5.77
Output  | 5.4501e-05 | 5.4501e-05 | 5.4501e-05 |   0.0 |  0.01
Modify  | 0.010322   | 0.010322   | 0.010322   |   0.0 |  1.15
Other   |            | 0.01242    |            |       |  1.38

Nlocal:            144 ave         144 max         144 min
Histogram: 1 0 0 0 0 0 0 0 0 0
Nghost:           3006 ave        3006 max        3006 min
Histogram: 1 0 0 0 0 0 0 0 0 0
Neighs:          12634 ave       12634 max       12634 min
Histogram: 1 0 0 0 0 0 0 0 0 0

Total # of neighbors = 12634
Ave neighs/atom = 87.736111
Neighbor list builds = 30
Dangerous builds = 0
unfix md

#---------------------------------------------------------------------------------------------------
# Final relaxation
#---------------------------------------------------------------------------------------------------
velocity all set 0.0 0.0 0.0

min_style 	cg
min_modify dmax 0.1
minimize 	0.0 1.0e-6 10000 100000
Per MPI rank memory allocation (min/avg/max) = 6.082 | 6.082 | 6.082 Mbytes
   Step        Atoms         Temp          PotEng         KinEng         TotEng          Fmax     
    110000         144   0             -471.1765       0                  -471.1765027919  0.91255075   
    110060         144   0             -474.13292      0                  -474.1329161598  1.4814584e-07
Loop time of 0.0119221 on 1 procs for 60 steps with 144 atoms

98.3% CPU use with 1 MPI tasks x no OpenMP threads

Minimization stats:
  Stopping criterion = force tolerance
  Energy initial, next-to-last, final = 
     -471.176502791891  -474.132916159781   -474.13291615978
  Force two-norm initial, final = 5.2801688 8.0921123e-07
  Force max component initial, final = 0.91255075 1.4814584e-07
  Final line search alpha, max atom move = 1 1.4814584e-07
  Iterations, force evaluations = 60 119

MPI task timing breakdown:
Section |  min time  |  avg time  |  max time  |%varavg| %total
---------------------------------------------------------------
Pair    | 0.01071    | 0.01071    | 0.01071    |   0.0 | 89.83
Neigh   | 0          | 0          | 0          |   0.0 |  0.00
Comm    | 0.00062538 | 0.00062538 | 0.00062538 |   0.0 |  5.25
Output  | 0          | 0          | 0          |   0.0 |  0.00
Modify  | 1.8705e-05 | 1.8705e-05 | 1.8705e-05 |   0.0 |  0.16
Other   |            | 0.0005681  |            |       |  4.77

Nlocal:            144 ave         144 max         144 min
Histogram: 1 0 0 0 0 0 0 0 0 0
Nghost:           3038 ave        3038 max        3038 min
Histogram: 1 0 0 0 0 0 0 0 0 0
Neighs:          12658 ave       12658 max       12658 min
Histogram: 1 0 0 0 0 0 0 0 0 0

Total # of neighbors = 12658
Ave neighs/atom = 87.902778
Neighbor list builds = 0
Dangerous builds = 0

Total wall time: 0:00:00
