ITEM: TIMESTEP
110064
ITEM: NUMBER OF ATOMS
144
ITEM: BOX BOUNDS xy xz yz pp pp pp
0.0000000000000000e+00 3.1001354557099610e+01 4.9602167291359365e+00
0.0000000000000000e+00 4.8802079873710284e+01 1.6120704369691801e+01
0.0000000000000000e+00 1.9734580741297954e+01 3.7710698084230678e+01
ITEM: ATOMS id type x y z c_peatom
70 2 0 0 0 -3.32139
82 2 1.65341 3.69713 0 -3.18379
81 2 6.61362 3.69713 0 -3.28783
80 2 4.13351 4.80627 0.905608 -3.38831
86 1 4.47754 7.04535 2.67168 -3.23471
88 1 6.92072 8.14347 3.54083 -3.25812
93 1 6.67973 5.88695 1.62184 -3.26634
94 2 5.78692 8.50339 0.905608 -3.24147
95 2 8.26703 7.39425 0 -3.25498
92 1 9.01744 7.11301 2.48953 -3.16633
76 1 11.5412 5.95973 1.44097 -3.12635
89 1 11.4237 7.72915 3.50215 -3.30339
91 2 9.09373 4.80627 0.905608 -3.35042
96 2 13.2272 7.39425 0 -3.25146
104 2 10.7471 8.50339 0.905608 -3.24702
87 1 4.84514 9.34506 4.43072 -3.1583
68 2 7.44033 12.2005 0.905608 -3.17625
100 1 5.95933 10.6639 2.39526 -3.16127
102 1 8.46415 11.6493 3.19685 -3.20512
106 1 8.3304 9.55736 1.61478 -3.25784
99 1 6.28214 11.6845 4.71802 -3.05757
98 1 9.46883 9.33049 4.27179 -3.23336
69 2 9.92043 11.0914 0 -3.31386
77 2 12.4005 12.2005 0.905608 -3.29785
105 1 10.9511 10.4922 2.46944 -3.1375
108 1 10.978 12.35 4.05699 -3.12901
79 1 10.0081 13.1825 1.58664 -3.23159
90 1 13.2759 9.43103 1.78639 -3.27282
103 1 13.5554 11.5852 3.22174 -3.22985
67 1 14.8923 13.2799 1.49389 -3.15021
72 1 7.44086 14.2799 2.24195 -2.99485
73 1 7.83552 16.4316 3.42217 -2.89816
109 1 8.15323 14.0359 4.51969 -3.10157
74 1 10.2111 15.1317 3.13634 -3.16396
78 1 12.6867 14.2726 2.83772 -3.37803
84 1 12.0473 16.6014 4.19738 -3.18754
101 1 15.2699 13.8107 3.88598 -2.9762
75 1 14.9073 16.0925 3.37258 -3.0912
44 1 8.9103 12.1266 5.75216 -2.9601
83 1 12.2507 9.95695 5.13829 -3.38654
97 1 13.4048 12.7508 5.42415 -3.07804
7 1 8.10377 16.9132 7.97091 -3.3635
9 1 8.41901 14.5835 6.94878 -3.06322
2 1 6.03535 13.6276 6.2895 -3.05131
1 1 11.0401 14.0906 5.74193 -3.16445
5 1 9.56738 16.3234 5.38443 -3.12989
6 1 10.8079 15.7228 7.54206 -2.95876
13 1 13.0937 16.7133 8.11863 -3.27844
3 1 13.6882 15.2467 5.81446 -3.27758
4 1 15.5897 15.7223 7.62758 -2.88866
14 1 16.5075 16.2396 5.48022 -3.20796
85 1 8.4265 18.4413 5.12527 -2.92185
17 1 8.92495 19.4407 7.28389 -3.18043
15 1 11.2648 18.2848 6.26359 -3.38124
35 1 12.3387 20.7447 5.77429 -3.22058
8 2 10.5405 17.7462 8.96168 -3.25563
34 1 11.3456 20.2896 8.23218 -3.28573
22 1 9.74428 21.9079 6.61854 -3.18058
71 1 13.9965 17.8929 5.23048 -3.21146
20 1 16.178 18.6984 6.41568 -3.19978
10 2 15.5007 17.7462 8.96168 -3.23499
16 1 13.7714 19.2238 7.4174 -3.15351
18 1 16.4114 20.3241 8.34462 -3.10973
21 1 15.0087 21.3898 6.60308 -2.95561
31 2 13.8473 21.4433 8.96168 -3.31414
19 2 18.8075 21.4433 8.96168 -3.30632
36 1 12.1749 22.8375 7.50639 -3.12517
53 2 12.1939 25.1405 8.96168 -3.23767
41 1 17.0532 22.8687 7.2934 -3.16904
42 1 14.78 23.9787 8.20885 -3.3027
43 2 17.1541 25.1405 8.96168 -3.24058
46 1 19.482 24.0848 8.21645 -3.27378
26 2 8.06035 18.8553 9.86729 -3.29595
11 2 13.0206 18.8553 9.86729 -3.34175
32 2 11.3672 22.5525 9.86729 -3.30252
52 1 11.2791 24.8027 11.3919 -3.23692
33 2 13.8473 23.6616 10.7729 -3.16503
38 1 16.2385 24.8006 11.4003 -3.25613
40 2 16.3274 22.5525 9.86729 -3.30172
49 1 13.7692 25.8954 12.2206 -3.06791
60 2 14.674 26.2496 9.86729 -3.29919
56 1 16.2786 26.4744 13.5441 -3.32509
50 1 21.242 26.4735 13.5358 -3.32472
37 2 18.8075 23.6616 10.7729 -3.16038
39 1 18.7253 25.8928 12.2118 -3.08833
45 2 19.6342 26.2496 9.86729 -3.2034
54 2 12.1939 27.3587 10.7729 -3.25624
51 1 14.7895 28.562 14.173 -3.06964
57 2 17.1541 27.3587 10.7729 -3.26718
58 1 14.7464 28.4474 11.5478 -3.29387
59 1 17.2436 29.1183 12.5882 -3.22687
66 1 14.9749 30.793 13.2227 -3.16335
107 1 17.5661 30.6306 14.4697 -2.9741
55 1 19.7595 28.5657 14.1681 -3.06563
61 1 19.9386 30.7962 13.2204 -3.15884
62 1 19.7041 28.4448 11.5411 -3.31274
63 1 22.205 29.1239 12.5888 -3.23517
117 1 22.5185 30.6279 14.4863 -2.9809
23 2 15.5007 31.0559 10.7729 -3.2074
25 1 15.1863 33.1926 12.1677 -3.04755
65 1 16.324 32.7099 14.3532 -2.92409
28 1 17.6445 34.3515 12.8685 -3.0908
30 1 17.7696 31.8955 11.8274 -3.38104
12 2 20.4609 31.0559 10.7729 -3.20046
27 1 20.144 33.1946 12.1747 -3.04937
64 1 21.279 32.7113 14.3583 -2.91864
29 1 20.0114 35.131 13.8051 -3.27553
24 1 22.728 31.8888 11.8375 -3.37128
48 1 22.604 34.3448 12.8618 -3.08643
47 1 24.973 35.1331 13.7959 -3.27913
127 1 18.6727 37.491 14.5595 -2.89877
140 1 23.6369 37.5022 14.5486 -2.89847
115 1 17.3957 35.254 15.1659 -3.18529
114 1 15.9629 33.4219 16.5922 -3.06488
110 1 16.1049 35.4737 18.2461 -3.09147
111 1 18.7746 32.8642 15.1375 -3.29204
112 1 18.4787 34.3369 17.3775 -3.17285
113 1 20.9374 33.4304 16.5959 -3.05813
122 1 21.0699 35.4829 18.2537 -3.09755
129 1 22.3591 35.2617 15.1527 -3.18379
116 1 23.7349 32.8679 15.1149 -3.28585
120 1 23.4409 34.34 17.3647 -3.18502
126 1 17.3298 37.2343 16.7569 -3.05533
139 1 17.256 39.5499 15.5211 -3.23818
119 1 17.6856 39.3363 18.176 -3.16556
118 2 18.6008 36.6016 18.829 -3.35275
123 1 19.9134 36.0639 16.1704 -3.09524
124 1 19.9075 38.6187 16.82 -3.32504
135 1 22.2157 39.5577 15.5164 -3.24254
125 1 22.2928 37.2379 16.7452 -3.05993
121 2 23.561 36.6016 18.829 -3.37644
128 1 24.8739 36.0693 16.1588 -3.09636
132 1 24.8642 38.622 16.82 -3.33208
134 1 22.648 39.3452 18.1667 -3.12866
138 1 19.8477 41.4292 16.0036 -3.25634
130 2 20.2542 40.2987 18.829 -3.28411
131 1 19.4621 42.8997 18.1189 -3.21186
141 2 21.9076 43.9958 18.829 -3.22657
136 1 22.1556 41.9657 17.0798 -3.29146
137 1 24.8036 41.4155 16.0061 -3.25257
133 2 25.2144 40.2987 18.829 -3.25687
144 1 24.4273 42.9017 18.0949 -3.22087
142 1 27.1123 41.9505 17.0992 -3.29268
143 2 26.8678 43.9958 18.829 -3.19668
