ITEM: TIMESTEP
100000
ITEM: NUMBER OF ATOMS
144
ITEM: BOX BOUNDS xy xz yz pp pp pp
0.0000000000000000e+00 2.9141273283673627e+01 4.9602167291359365e+00
0.0000000000000000e+00 4.4642811702655436e+01 1.4260623096265821e+01
0.0000000000000000e+00 2.0734580741297954e+01 3.3551429913175824e+01
ITEM: ATOMS id type x y z c_peatom
70 2 0 0 0 -3.35439
82 2 1.65341 3.69713 0 -3.32018
69 2 4.96022 0 0 -3.35439
81 2 6.61362 3.69713 0 -3.32018
80 2 4.13351 4.80627 0.905608 -3.35047
86 1 4.20124 6.92651 2.6014 -3.32368
88 1 6.79609 8.055 3.4484 -3.31666
91 2 9.09373 4.80627 0.905608 -3.35047
92 1 9.16146 6.92651 2.6014 -3.32368
93 1 6.61182 5.89462 1.68813 -3.31451
94 2 5.78692 8.50339 0.905608 -3.33863
95 2 8.26703 7.39425 0 -3.32018
76 1 11.572 5.89462 1.68813 -3.31451
89 1 11.7563 8.055 3.4484 -3.31666
96 2 13.2272 7.39425 0 -3.32018
104 2 10.7471 8.50339 0.905608 -3.33863
87 1 4.41563 9.1144 4.2757 -3.31768
68 2 7.44033 12.2005 0.905608 -3.34147
98 1 9.37584 9.1144 4.2757 -3.31768
100 1 5.8986 10.6469 2.5694 -3.32274
101 1 5.99546 12.7865 4.2846 -3.25753
102 1 8.42243 11.5621 3.31297 -3.19486
106 1 8.31436 9.51972 1.67048 -3.28364
99 1 6.97542 10.2324 5.17371 -3.3549
77 2 12.4005 12.2005 0.905608 -3.34147
79 1 9.8684 13.3093 1.76272 -3.36717
90 1 13.2746 9.51972 1.67048 -3.28364
103 1 13.3826 11.5621 3.31297 -3.19486
105 1 10.8588 10.6469 2.5694 -3.32274
108 1 10.9557 12.7865 4.2846 -3.25753
83 1 11.9356 10.2324 5.17371 -3.3549
67 1 14.8286 13.3093 1.76272 -3.36717
72 1 7.33425 14.4149 2.5835 -3.30521
109 1 8.52131 13.4533 4.89127 -2.88838
74 1 9.66206 15.4566 3.63625 -3.26936
78 1 12.2945 14.4149 2.5835 -3.30521
84 1 11.8714 16.5831 4.32586 -3.18796
97 1 13.4815 13.4533 4.89127 -2.88838
73 1 16.8316 16.5831 4.32586 -3.18796
75 1 14.6223 15.4566 3.63625 -3.26936
1 1 9.50953 11.2211 6.04193 -3.31698
9 1 7.05556 12.4473 6.88965 -3.3099
2 1 14.4697 11.2211 6.04193 -3.31698
3 1 12.0158 12.4473 6.88965 -3.3099
5 1 8.06751 15.2838 6.30609 -2.96137
6 1 9.58798 13.481 7.67994 -3.34122
7 1 7.10484 14.572 8.70308 -3.30486
8 2 9.61042 15.6666 9.46168 -3.36854
17 1 8.02819 17.2758 7.84743 -3.25409
85 1 9.12955 17.7038 5.25422 -3.26353
4 1 14.5482 13.481 7.67994 -3.34122
10 2 14.5706 15.6666 9.46168 -3.36854
13 1 12.0651 14.572 8.70308 -3.30486
14 1 13.0277 15.2838 6.30609 -2.96137
15 1 10.561 16.0789 6.85136 -3.30014
16 1 12.9884 17.2758 7.84743 -3.25409
71 1 14.0898 17.7038 5.25422 -3.26353
20 1 15.5213 16.0789 6.85136 -3.30014
22 1 8.87346 19.827 6.94313 -3.30141
31 2 12.9172 19.3637 9.46168 -3.30247
34 1 10.4687 18.2713 8.63844 -3.36232
35 1 11.457 18.7353 6.09696 -3.31403
36 1 11.3003 20.9029 7.78853 -3.32553
42 1 13.7393 21.9967 8.65541 -3.34144
44 1 13.8337 19.827 6.94313 -3.30141
18 1 15.429 18.2713 8.63844 -3.36232
19 2 17.8774 19.3637 9.46168 -3.30247
21 1 16.4172 18.7353 6.09696 -3.31403
41 1 16.2605 20.9029 7.78853 -3.32553
46 1 18.6995 21.9967 8.65541 -3.34144
53 2 11.2638 23.0608 9.46168 -3.32289
43 2 16.224 23.0608 9.46168 -3.32289
26 2 7.13031 16.7757 10.3673 -3.3313
11 2 12.0905 16.7757 10.3673 -3.3313
32 2 10.4371 20.4728 10.3673 -3.35731
33 2 12.9172 21.582 11.2729 -3.32289
37 2 17.8774 21.582 11.2729 -3.32289
40 2 15.3973 20.4728 10.3673 -3.35731
49 1 12.8807 23.7399 12.9461 -3.32553
51 1 12.724 25.9076 14.6376 -3.31403
52 1 10.4418 22.6461 12.0792 -3.34144
54 2 11.2638 25.2791 11.2729 -3.30247
58 1 13.7123 26.3715 12.0961 -3.36232
60 2 13.7439 24.17 10.3673 -3.35731
38 1 15.402 22.6461 12.0792 -3.34144
39 1 17.8409 23.7399 12.9461 -3.32553
45 2 18.7042 24.17 10.3673 -3.35731
55 1 17.6843 25.9076 14.6376 -3.31403
56 1 15.3076 24.8158 13.7915 -3.30141
57 2 16.224 25.2791 11.2729 -3.30247
62 1 18.6725 26.3715 12.0961 -3.36232
50 1 20.2678 24.8158 13.7915 -3.30141
66 1 13.62 28.5639 13.8832 -3.30014
23 2 14.5706 28.9762 11.2729 -3.36854
25 1 14.5931 31.1618 13.0546 -3.34122
30 1 17.0762 30.0708 12.0315 -3.30486
59 1 16.1529 27.367 12.8871 -3.25409
61 1 18.5802 28.5639 13.8832 -3.30014
65 1 16.1135 29.359 14.4285 -2.96137
107 1 15.0515 26.939 15.4804 -3.26353
12 2 19.5309 28.9762 11.2729 -3.36854
24 1 22.0364 30.0708 12.0315 -3.30486
27 1 19.5533 31.1618 13.0546 -3.34122
63 1 21.1131 27.367 12.8871 -3.25409
64 1 21.0738 29.359 14.4285 -2.96137
117 1 20.0117 26.939 15.4804 -3.26353
28 1 17.1255 32.1955 13.8449 -3.3099
47 1 14.6715 33.4217 14.6927 -3.31698
29 1 19.6317 33.4217 14.6927 -3.31698
48 1 22.0857 32.1955 13.8449 -3.3099
114 1 14.519 29.1862 17.0983 -3.26936
116 1 12.3096 28.0597 16.4087 -3.18796
111 1 17.2699 28.0597 16.4087 -3.18796
112 1 16.8468 30.2279 18.1511 -3.30521
115 1 15.6597 31.1895 15.8433 -2.88838
113 1 19.4792 29.1862 17.0983 -3.26936
120 1 21.807 30.2279 18.1511 -3.30521
129 1 20.62 31.1895 15.8433 -2.88838
110 1 14.3127 31.3335 18.9719 -3.36717
118 2 16.7407 32.4423 19.829 -3.34147
119 1 15.8667 35.1231 19.0641 -3.28364
122 1 19.2729 31.3335 18.9719 -3.36717
123 1 18.1856 31.8563 16.45 -3.25753
124 1 18.2825 33.9959 18.1652 -3.32274
126 1 15.7586 33.0807 17.4216 -3.19486
127 1 17.2056 34.4104 15.5609 -3.3549
121 2 21.7009 32.4423 19.829 -3.34147
125 1 20.7188 33.0807 17.4216 -3.19486
128 1 23.1458 31.8563 16.45 -3.25753
132 1 23.2427 33.9959 18.1652 -3.32274
134 1 20.8269 35.1231 19.0641 -3.28364
135 1 19.7654 35.5284 16.4589 -3.31768
140 1 22.1659 34.4104 15.5609 -3.3549
139 1 24.7256 35.5284 16.4589 -3.31768
130 2 18.3941 36.1394 19.829 -3.33863
131 1 17.5692 38.7482 19.0465 -3.31451
138 1 17.385 36.5878 17.2862 -3.31666
133 2 23.3544 36.1394 19.829 -3.33863
136 1 19.9798 37.7163 18.1332 -3.32368
137 1 22.3452 36.5878 17.2862 -3.31666
141 2 20.0475 39.8365 19.829 -3.35047
144 1 22.5295 38.7482 19.0465 -3.31451
142 1 24.94 37.7163 18.1332 -3.32368
143 2 25.0078 39.8365 19.829 -3.35047
