ITEM: TIMESTEP
123
ITEM: NUMBER OF ATOMS
144
ITEM: BOX BOUNDS xy xz yz pp pp pp
0.0000000000000000e+00 4.2161842197655460e+01 4.9602167291359365e+00
0.0000000000000000e+00 5.7120616215819993e+01 2.7281192010247651e+01
0.0000000000000000e+00 2.3734580741297954e+01 4.6029234426340381e+01
ITEM: ATOMS id type x y z c_peatom
70 2 0 0 0 -3.33884
82 2 1.65341 3.69713 0 -3.35455
69 2 4.96022 4.30618e-16 0 -3.33884
81 2 6.61362 3.69713 0 -3.35455
80 2 4.13351 4.80627 0.905608 -3.36488
86 1 4.18865 6.93132 2.84847 -3.38447
88 1 6.70844 8.0267 3.71697 -3.31203
91 2 9.09373 4.80627 0.905608 -3.36488
92 1 9.14887 6.93132 2.84847 -3.38447
93 1 6.65822 5.88995 1.84949 -3.36496
94 2 5.78692 8.50339 0.905608 -3.36393
95 2 8.26703 7.39425 0 -3.35455
76 1 11.6184 5.88995 1.84949 -3.36496
89 1 11.6687 8.0267 3.71697 -3.31203
96 2 13.2272 7.39425 0 -3.35455
104 2 10.7471 8.50339 0.905608 -3.36393
68 2 7.44033 12.2005 0.905608 -3.35312
98 1 9.28296 8.83473 4.91569 -3.27851
100 1 5.82829 10.6096 2.8711 -3.35231
102 1 8.37621 11.6656 3.74935 -3.2781
106 1 8.29411 9.55133 1.88874 -3.3358
77 2 12.4005 12.2005 0.905608 -3.35312
87 1 14.2432 8.83473 4.91569 -3.27851
90 1 13.2543 9.55133 1.88874 -3.3358
103 1 13.3364 11.6656 3.74935 -3.2781
105 1 10.7885 10.6096 2.8711 -3.35231
108 1 10.9348 12.8017 4.75554 -3.19438
101 1 15.895 12.8017 4.75554 -3.19438
72 1 7.45757 14.285 2.73914 -3.40165
74 1 9.95195 15.4088 3.51192 -3.27075
78 1 12.4178 14.285 2.73914 -3.40165
79 1 9.94149 13.2097 1.86781 -3.35744
84 1 12.2495 16.4321 4.57144 -3.26393
67 1 14.9017 13.2097 1.86781 -3.35744
73 1 17.2097 16.4321 4.57144 -3.26393
75 1 14.9122 15.4088 3.51192 -3.27075
109 1 8.5909 14.0837 5.34737 -3.01207
2 1 11.8876 18.4544 6.51329 -3.17631
97 1 13.5511 14.0837 5.34737 -3.01207
1 1 16.8478 18.4544 6.51329 -3.17631
9 1 14.0412 18.7072 8.03993 -3.1692
85 1 9.65204 17.105 5.71347 -3.20344
99 1 11.8467 21.2299 5.65186 -3.20241
3 1 19.0014 18.7072 8.03993 -3.1692
5 1 14.445 21.4688 7.22311 -3.15654
6 1 16.3024 19.6857 9.08322 -3.2769
71 1 14.6123 17.105 5.71347 -3.20344
83 1 16.8069 21.2299 5.65186 -3.20241
4 1 21.2626 19.6857 9.08322 -3.2769
14 1 19.4052 21.4688 7.22311 -3.15654
15 1 16.9538 22.321 8.30279 -3.21088
17 1 14.4964 23.5868 9.04755 -3.31935
22 1 9.79399 15.1833 7.962 -3.14413
35 1 17.0481 24.9366 7.4247 -3.01979
16 1 19.4566 23.5868 9.04755 -3.31935
20 1 21.9141 22.321 8.30279 -3.21088
21 1 22.0083 24.9366 7.4247 -3.01979
44 1 14.7542 15.1833 7.962 -3.14413
36 1 17.4423 27.3325 8.97689 -3.24091
41 1 22.4025 27.3325 8.97689 -3.24091
7 1 13.7217 20.8425 9.99134 -3.37036
8 2 16.1207 21.9055 10.9617 -3.38088
13 1 18.682 20.8425 9.99134 -3.37036
10 2 21.0809 21.9055 10.9617 -3.38088
34 1 16.9636 24.5543 10.1158 -3.30983
18 1 21.9238 24.5543 10.1158 -3.30983
31 2 19.4275 25.6026 10.9617 -3.3583
19 2 24.3877 25.6026 10.9617 -3.3583
32 2 16.9474 26.7117 11.8673 -3.37691
52 1 17.0828 28.916 13.6619 -3.29318
53 2 17.7741 29.2997 10.9617 -3.34994
33 2 19.4275 27.8209 12.7729 -3.34994
38 1 22.043 28.916 13.6619 -3.29318
40 2 21.9076 26.7117 11.8673 -3.37691
42 1 20.1189 28.2046 10.0726 -3.29318
43 2 22.7343 29.2997 10.9617 -3.34994
60 2 20.2542 30.4089 11.8673 -3.37691
37 2 24.3877 27.8209 12.7729 -3.34994
45 2 25.2144 30.4089 11.8673 -3.37691
46 1 25.0791 28.2046 10.0726 -3.29318
54 2 17.7741 31.518 12.7729 -3.3583
57 2 22.7343 31.518 12.7729 -3.3583
58 1 20.238 32.5664 13.6188 -3.30983
11 2 23.561 34.106 11.8673 -3.36833
62 1 25.1982 32.5664 13.6188 -3.30983
26 2 28.5212 34.106 11.8673 -3.36833
23 2 21.0809 35.2151 12.7729 -3.38088
12 2 26.0411 35.2151 12.7729 -3.38088
30 1 23.4799 36.2781 13.7432 -3.37036
24 1 28.4401 36.2781 13.7432 -3.37036
49 1 19.7593 29.7881 14.7577 -3.24091
39 1 24.7195 29.7881 14.7577 -3.24091
51 1 20.1536 32.184 16.3099 -3.01979
56 1 27.4076 41.9373 15.7726 -3.14413
59 1 22.7052 33.5338 14.687 -3.31935
66 1 20.2478 34.7996 15.4318 -3.21088
50 1 32.3678 41.9373 15.7726 -3.14413
55 1 25.1138 32.184 16.3099 -3.01979
61 1 25.208 34.7996 15.4318 -3.21088
63 1 27.6655 33.5338 14.687 -3.31935
25 1 20.8992 37.4349 14.6514 -3.2769
65 1 22.7566 35.6519 16.5115 -3.15654
27 1 25.8595 37.4349 14.6514 -3.2769
28 1 23.1604 38.4135 15.6947 -3.1692
64 1 27.7168 35.6519 16.5115 -3.15654
107 1 27.5496 40.0156 18.0211 -3.20344
127 1 25.3549 35.8907 18.0827 -3.20241
48 1 28.1206 38.4135 15.6947 -3.1692
117 1 32.5098 40.0156 18.0211 -3.20344
140 1 30.3151 35.8907 18.0827 -3.20241
29 1 25.3141 38.6662 17.2213 -3.17631
47 1 30.2743 38.6662 17.2213 -3.17631
115 1 28.6107 43.0369 18.3872 -3.01207
129 1 33.5709 43.0369 18.3872 -3.01207
110 1 27.2601 43.9109 21.8668 -3.35744
114 1 27.2497 41.7119 20.2227 -3.27075
116 1 24.9521 40.6885 19.1631 -3.26393
111 1 29.9124 40.6885 19.1631 -3.26393
112 1 29.7441 42.8356 20.9954 -3.40165
113 1 32.2099 41.7119 20.2227 -3.27075
122 1 32.2204 43.9109 21.8668 -3.35744
120 1 34.7043 42.8356 20.9954 -3.40165
128 1 26.2668 44.319 18.979 -3.19438
139 1 27.9187 48.2859 18.8189 -3.27851
118 2 29.7613 44.9201 22.829 -3.35312
119 1 28.9075 47.5693 21.8458 -3.3358
123 1 31.227 44.319 18.979 -3.19438
124 1 31.3733 46.5111 20.8635 -3.35231
126 1 28.8254 45.455 19.9852 -3.2781
121 2 34.7215 44.9201 22.829 -3.35312
125 1 33.7856 45.455 19.9852 -3.2781
132 1 36.3336 46.5111 20.8635 -3.35231
134 1 33.8677 47.5693 21.8458 -3.3358
135 1 32.8789 48.2859 18.8189 -3.27851
130 2 31.4147 48.6172 22.829 -3.36393
131 1 30.5434 51.2307 21.8851 -3.36496
138 1 30.4932 49.0939 20.0176 -3.31203
133 2 36.3749 48.6172 22.829 -3.36393
136 1 33.013 50.1893 20.8861 -3.38447
137 1 35.4534 49.0939 20.0176 -3.31203
141 2 33.0681 52.3144 22.829 -3.36488
144 1 35.5036 51.2307 21.8851 -3.36496
142 1 37.9732 50.1893 20.8861 -3.38447
143 2 38.0283 52.3144 22.829 -3.36488
