#Lammps coordinate file for CSL - Axis: [1 1 1]  Angle: (1, 3) -> 59.99999999999999  Plane indices: [0 1 1]  z-position: [4.9336451853244885 14.800935555973464]  Repeats: 1 1 (3, 3) (black, white)  Fixed: 2.228  Boundary equiv: True
144 atoms

2 atom types

0.0 9.920433458271871 xlo xhi
0.0 11.091381789479609 ylo yhi
0.0 19.734580741297954 zlo zhi
4.9602167291359365 18.600812734259762 48.802079873710284 xy xz yz

Atoms

1 1 11.78051473169785 18.855349042115336 5.339252716211904
2 1 16.740731460833782 18.855349042115336 5.339252716211904
3 1 14.260623096265816 19.964487221063298 6.24486024709932
4 1 16.740731460833782 21.07362540001126 7.150467777986734
5 1 20.047542613591073 22.552476305275206 5.339252716211904
6 1 11.780514731697847 21.07362540001126 7.150467777986734
7 1 9.300406367129881 22.18276357895922 8.05607530887415
8 2 11.78051473169785 23.291901757907183 8.961682839761563
9 1 9.300406367129881 19.9644872210633 6.244860247099318
10 2 16.740731460833782 23.291901757907183 8.961682839761563
11 2 14.260623096265817 24.401039936855142 9.867290370648979
12 2 16.740731460833782 25.510178115803104 10.772897901536393
13 1 14.260623096265816 22.18276357895922 8.05607530887415
14 1 15.087325884455137 22.552476305275206 5.339252716211904
15 1 12.607217519887172 23.66161448422317 6.244860247099318
16 1 15.087325884455137 24.77075266317113 7.150467777986734
17 1 20.047542613591073 24.77075266317113 7.150467777986734
18 1 17.56743424902311 25.87989084211909 8.05607530887415
19 2 20.047542613591077 26.98902902106705 8.961682839761563
20 1 17.567434249023105 23.66161448422317 6.24486024709932
21 1 18.39413703721243 26.249603568435077 5.339252716211902
22 1 20.8742454017804 27.35874174738304 6.244860247099318
23 2 11.78051473169785 25.510178115803104 10.772897901536393
24 1 9.300406367129881 26.619316294751066 11.678505432423808
25 1 11.78051473169785 27.728454473699028 12.584112963311222
26 2 9.300406367129881 24.401039936855142 9.867290370648979
27 1 16.740731460833786 27.728454473699028 12.584112963311222
28 1 14.260623096265817 28.837592652646986 13.489720494198638
29 1 16.740731460833786 29.946730831594948 14.395328025086053
30 1 14.260623096265817 26.619316294751066 11.678505432423808
31 2 15.087325884455138 26.989029021067054 8.961682839761563
32 2 12.607217519887172 28.098167200015013 9.867290370648979
33 2 15.087325884455138 29.207305378962975 10.772897901536393
34 1 12.607217519887172 25.879890842119092 8.05607530887415
35 1 13.433920308076493 26.249603568435077 5.339252716211902
36 1 13.433920308076493 28.467879926331 7.150467777986734
37 2 20.047542613591077 29.207305378962975 10.772897901536393
38 1 17.56743424902311 30.316443557910937 11.678505432423808
39 1 20.047542613591077 31.4255817368589 12.584112963311224
40 2 17.56743424902311 28.098167200015013 9.867290370648979
41 1 18.39413703721243 28.467879926330998 7.150467777986734
42 1 15.914028672644461 29.577018105278963 8.05607530887415
43 2 18.39413703721243 30.68615628422692 8.961682839761563
44 1 15.914028672644461 27.35874174738304 6.244860247099318
45 2 20.8742454017804 31.795294463174884 9.867290370648977
46 1 20.8742454017804 29.57701810527896 8.05607530887415
47 1 11.78051473169785 29.94673083159495 14.395328025086052
48 1 9.300406367129883 28.83759265264699 13.489720494198638
49 1 15.08732588445514 31.4255817368589 12.584112963311222
50 1 12.607217519887174 32.53471991580686 13.489720494198638
51 1 15.08732588445514 33.64385809475482 14.395328025086053
52 1 12.607217519887172 30.316443557910937 11.678505432423808
53 2 13.433920308076495 30.68615628422692 8.961682839761563
54 2 13.433920308076495 32.90443264212284 10.772897901536393
55 1 20.047542613591077 33.64385809475482 14.395328025086052
56 1 17.56743424902311 32.53471991580686 13.48972049419864
57 2 18.39413703721243 32.90443264212284 10.772897901536393
58 1 15.914028672644463 34.01357082107081 11.678505432423808
59 1 18.39413703721243 35.12270900001877 12.584112963311224
60 2 15.914028672644463 31.795294463174884 9.867290370648979
61 1 20.874245401780396 36.23184717896673 13.489720494198636
62 1 20.874245401780392 34.0135708210708 11.678505432423808
63 1 13.433920308076495 35.12270900001877 12.58411296331122
64 1 13.433920308076495 37.34098535791469 14.395328025086052
65 1 18.39413703721243 37.34098535791469 14.39532802508605
66 1 15.914028672644463 36.23184717896673 13.489720494198638
67 1 0.0 2.218276357895922 1.8112150617748295
68 2 2.4801083645679682 1.109138178947962 0.9056075308874147
69 2 4.960216729135936 0.0 -2.220446049250313e-16
70 2 0.0 0.0 0.0
71 1 0.0 6.654829073687768 4.9336451853244885
72 1 2.4801083645679682 3.327414536843884 2.7168225926622442
73 1 2.4801083645679682 5.545690894739806 4.528037654437073
74 1 4.960216729135936 4.436552715791845 3.6224301235496585
75 1 0.0 4.436552715791845 3.6224301235496585
76 1 1.6534055763786455 5.915403621055794 1.811215061774829
77 2 7.440325093703903 1.109138178947962 0.9056075308874145
78 1 7.440325093703903 3.327414536843884 2.7168225926622442
79 1 4.960216729135936 2.218276357895922 1.811215061774829
80 2 4.133513940946613 4.806265442107832 0.9056075308874143
81 2 6.61362230551458 3.697127263159871 -5.551115123125783e-16
82 2 1.6534055763786455 3.697127263159871 -4.440892098500626e-16
83 1 1.6534055763786455 10.351956336847639 4.9336451853244885
84 1 7.440325093703903 5.545690894739806 4.528037654437073
85 1 4.960216729135936 6.654829073687768 4.9336451853244885
86 1 4.133513940946613 7.024541800003755 2.716822592662244
87 1 4.133513940946613 9.242818157899677 4.528037654437073
88 1 6.61362230551458 8.133679978951715 3.6224301235496585
89 1 1.6534055763786455 8.133679978951717 3.6224301235496585
90 1 3.306811152757291 9.612530884215664 1.811215061774829
91 2 9.093730670082548 4.806265442107832 0.9056075308874143
92 1 9.093730670082547 7.024541800003755 2.716822592662244
93 1 6.61362230551458 5.915403621055793 1.811215061774829
94 2 5.7869195173252574 8.503392705267704 0.9056075308874139
95 2 8.267027881893226 7.394254526319742 -9.992007221626409e-16
96 2 3.306811152757291 7.394254526319742 -7.771561172376096e-16
97 1 3.306811152757291 14.04908360000751 4.933645185324487
98 1 9.093730670082547 9.242818157899677 4.528037654437073
99 1 6.613622305514581 10.351956336847639 4.9336451853244885
100 1 5.786919517325258 10.721669063163626 2.7168225926622434
101 1 5.786919517325258 12.939945421059548 4.528037654437073
102 1 8.267027881893226 11.830807242111586 3.6224301235496585
103 1 3.306811152757291 11.830807242111588 3.6224301235496585
104 2 10.747136246461192 8.503392705267704 0.9056075308874139
105 1 10.747136246461192 10.721669063163626 2.7168225926622434
106 1 8.267027881893226 9.612530884215664 1.8112150617748286
107 1 18.600812734259762 42.14725080002252 14.800935555973467
108 1 10.747136246461192 12.939945421059548 4.528037654437073
109 1 8.267027881893226 14.04908360000751 4.933645185324487
110 1 18.600812734259762 46.58380351581437 17.923365679523123
111 1 21.080921098827726 43.25638897897049 15.20654308686088
112 1 21.08092109882773 45.47466533686641 17.01775814863571
113 1 23.561029463395695 44.36552715791845 16.112150617748295
114 1 18.600812734259762 44.36552715791845 16.112150617748295
115 1 20.254218310638407 45.84437806318239 14.800935555973464
116 1 26.04113782796366 43.25638897897049 15.20654308686088
117 1 23.561029463395695 42.14725080002252 14.800935555973464
118 2 21.08092109882773 47.692941694762325 18.82897321041054
119 1 20.254218310638407 50.28093077897424 17.923365679523123
120 1 26.04113782796366 45.47466533686641 17.017758148635707
121 2 26.041137827963666 47.692941694762325 18.82897321041054
122 1 23.5610294633957 46.58380351581437 17.923365679523126
123 1 22.734326675206372 46.95351624213036 15.20654308686088
124 1 22.734326675206376 49.17179260002628 17.01775814863571
125 1 25.21443503977434 48.06265442107832 16.112150617748295
126 1 20.254218310638407 48.06265442107832 16.112150617748295
127 1 21.907623887017053 49.54150532634226 14.800935555973464
128 1 27.694543404342312 46.95351624213036 15.20654308686088
129 1 25.21443503977434 45.84437806318239 14.800935555973464
130 2 22.734326675206376 51.390068957922196 18.82897321041054
131 1 21.907623887017053 53.97805804213411 17.923365679523123
132 1 27.694543404342312 49.17179260002628 17.017758148635707
133 2 27.694543404342312 51.390068957922196 18.82897321041054
134 1 25.214435039774344 50.28093077897424 17.923365679523126
135 1 24.387732251585017 50.65064350529023 15.20654308686088
136 1 24.38773225158502 52.86891986318615 17.01775814863571
137 1 26.86784061615299 51.75978168423819 16.112150617748295
138 1 21.907623887017053 51.75978168423819 16.112150617748295
139 1 29.347948980720957 50.65064350529023 15.20654308686088
140 1 26.86784061615299 49.54150532634226 14.800935555973464
141 2 24.38773225158502 55.08719622108208 18.82897321041054
142 1 29.347948980720957 52.86891986318615 17.017758148635707
143 2 29.347948980720957 55.08719622108208 18.82897321041054
144 1 26.86784061615299 53.97805804213411 17.923365679523126
