ITEM: TIMESTEP
100000
ITEM: NUMBER OF ATOMS
144
ITEM: BOX BOUNDS xy xz yz pp pp pp
0.0000000000000000e+00 2.7901219101389643e+01 4.9602167291359365e+00
0.0000000000000000e+00 5.5734193492135049e+01 1.3020568913981837e+01
0.0000000000000000e+00 2.2734580741297954e+01 4.4642811702655436e+01
ITEM: ATOMS id type x y z c_peatom
70 2 0 0 0 -3.38293
69 2 4.96022 4.36018e-16 0 -3.38293
81 2 6.61362 3.69713 0 -3.34974
82 2 11.5738 3.69713 0 -3.34974
80 2 4.13351 4.80627 0.905608 -3.34805
86 1 4.12581 7.17644 2.83211 -3.33651
88 1 6.68068 8.38768 3.75773 -3.34521
91 2 9.09373 4.80627 0.905608 -3.34805
92 1 9.08603 7.17644 2.83211 -3.33651
93 1 6.60322 6.02352 1.88503 -3.33669
94 2 5.78692 8.50339 0.905608 -3.34296
95 2 8.26703 7.39425 0 -3.34974
76 1 11.5634 6.02352 1.88503 -3.33669
89 1 11.6409 8.38768 3.75773 -3.34521
96 2 13.2272 7.39425 0 -3.34974
104 2 10.7471 8.50339 0.905608 -3.34296
68 2 7.44033 12.2005 0.905608 -3.3689
100 1 5.8045 10.8166 2.6971 -3.37187
101 1 5.67341 13.1477 4.25691 -3.16124
102 1 8.2552 11.9908 3.45317 -3.26953
106 1 8.27909 9.64666 1.81648 -3.36227
77 2 12.4005 12.2005 0.905608 -3.3689
79 1 9.90924 13.4007 1.72256 -3.32544
90 1 13.2393 9.64666 1.81648 -3.36227
103 1 13.2154 11.9908 3.45317 -3.26953
105 1 10.7647 10.8166 2.6971 -3.37187
108 1 10.6336 13.1477 4.25691 -3.16124
67 1 14.8695 13.4007 1.72256 -3.32544
72 1 7.41334 14.6012 2.70304 -3.33367
74 1 9.8392 15.7872 3.81174 -3.29406
78 1 12.3736 14.6012 2.70304 -3.33367
75 1 14.7994 15.7872 3.81174 -3.29406
87 1 4.22735 9.70644 4.60917 -3.2314
98 1 9.18757 9.70644 4.60917 -3.2314
99 1 6.81555 11.0328 5.51087 -3.18091
83 1 11.7758 11.0328 5.51087 -3.18091
73 1 7.32183 16.9063 4.82572 -3.28282
1 1 9.16954 16.2206 6.80545 -3.15986
9 1 6.60096 17.5127 7.6802 -3.23547
109 1 8.12183 14.0037 5.3439 -3.21297
84 1 12.282 16.9063 4.82572 -3.28282
3 1 11.5612 17.5127 7.6802 -3.23547
85 1 9.82953 18.4706 5.65336 -3.21097
97 1 13.082 14.0037 5.3439 -3.21297
2 1 14.1298 16.2206 6.80545 -3.15986
71 1 14.7898 18.4706 5.65336 -3.21097
5 1 7.34182 19.8096 6.59594 -3.20371
6 1 9.06298 18.8395 8.53528 -3.34108
14 1 12.302 19.8096 6.59594 -3.20371
15 1 9.7736 21.4122 7.43586 -3.28733
16 1 12.2717 22.4978 8.4884 -3.30594
4 1 14.0232 18.8395 8.53528 -3.34108
17 1 17.2319 22.4978 8.4884 -3.30594
20 1 14.7338 21.4122 7.43586 -3.28733
35 1 10.5733 24.2919 6.90864 -3.21761
36 1 10.6454 26.2976 8.79501 -3.26625
44 1 13.0625 25.131 7.97963 -3.14826
21 1 15.5335 24.2919 6.90864 -3.21761
22 1 18.0227 25.131 7.97963 -3.14826
41 1 15.6056 26.2976 8.79501 -3.26625
7 1 6.51445 20.0129 9.44951 -3.34014
8 2 8.99039 21.2123 10.4617 -3.33033
10 2 13.9506 21.2123 10.4617 -3.33033
11 2 11.4705 22.3214 11.3673 -3.35134
13 1 11.4747 20.0129 9.44951 -3.34014
26 2 16.4307 22.3214 11.3673 -3.35134
31 2 12.2972 24.9094 10.4617 -3.3274
32 2 9.8171 26.0185 11.3673 -3.3683
33 2 12.2972 27.1277 12.2729 -3.37387
34 1 9.8268 23.6758 9.55314 -3.33908
42 1 13.1506 27.4652 9.57161 -3.3816
18 1 14.787 23.6758 9.55314 -3.33908
19 2 17.2574 24.9094 10.4617 -3.3274
37 2 17.2574 27.1277 12.2729 -3.37387
40 2 14.7773 26.0185 11.3673 -3.3683
46 1 18.1108 27.4652 9.57161 -3.3816
52 1 9.79039 28.269 13.163 -3.3816
53 2 10.6438 28.6065 10.4617 -3.37387
54 2 10.6438 30.8248 12.2729 -3.3274
58 1 13.1142 32.0584 13.1814 -3.33908
60 2 13.1239 29.7157 11.3673 -3.3683
38 1 14.7506 28.269 13.163 -3.3816
43 2 15.604 28.6065 10.4617 -3.37387
45 2 18.0841 29.7157 11.3673 -3.3683
57 2 15.604 30.8248 12.2729 -3.3274
62 1 18.0744 32.0584 13.1814 -3.33908
23 2 13.9506 34.5219 12.2729 -3.33033
30 1 16.4265 35.7213 13.2851 -3.34014
12 2 18.9108 34.5219 12.2729 -3.33033
24 1 21.3868 35.7213 13.2851 -3.34014
49 1 12.2956 29.4366 13.9396 -3.26625
50 1 9.87847 30.6032 14.7549 -3.14826
51 1 12.3677 31.4423 15.8259 -3.21761
39 1 17.2558 29.4366 13.9396 -3.26625
55 1 17.3279 31.4423 15.8259 -3.21761
56 1 14.8387 30.6032 14.7549 -3.14826
25 1 13.878 36.8947 14.1993 -3.34108
63 1 10.6694 33.2363 14.2462 -3.30594
66 1 13.1674 34.322 15.2987 -3.28733
59 1 15.6296 33.2363 14.2462 -3.30594
61 1 18.1276 34.322 15.2987 -3.28733
65 1 15.5992 35.9246 16.1386 -3.20371
27 1 18.8382 36.8947 14.1993 -3.34108
64 1 20.5594 35.9246 16.1386 -3.20371
47 1 13.7715 39.5136 15.9291 -3.15986
107 1 13.1115 37.2636 17.0812 -3.21097
28 1 16.34 38.2215 15.0544 -3.23547
115 1 14.8192 41.7305 17.3907 -3.21297
117 1 18.0717 37.2636 17.0812 -3.21097
111 1 15.6192 38.8279 17.9089 -3.28282
29 1 18.7317 39.5136 15.9291 -3.15986
48 1 21.3003 38.2215 15.0544 -3.23547
129 1 19.7794 41.7305 17.3907 -3.21297
116 1 20.5794 38.8279 17.9089 -3.28282
127 1 16.1255 44.7014 17.2237 -3.18091
140 1 21.0857 44.7014 17.2237 -3.18091
135 1 18.7137 46.0278 18.1254 -3.2314
139 1 23.6739 46.0278 18.1254 -3.2314
114 1 13.1018 39.947 18.9228 -3.29406
112 1 15.5277 41.133 20.0315 -3.33367
113 1 18.062 39.947 18.9228 -3.29406
120 1 20.4879 41.133 20.0315 -3.33367
110 1 13.0318 42.3335 21.012 -3.32544
118 2 15.5007 43.5337 21.829 -3.3689
119 1 14.6619 46.0875 20.9181 -3.36227
122 1 17.992 42.3335 21.012 -3.32544
123 1 17.2676 42.5865 18.4777 -3.16124
124 1 17.1365 44.9176 20.0375 -3.37187
126 1 14.6858 43.7434 19.2814 -3.26953
121 2 20.4609 43.5337 21.829 -3.3689
125 1 19.646 43.7434 19.2814 -3.26953
128 1 22.2278 42.5865 18.4777 -3.16124
132 1 22.0967 44.9176 20.0375 -3.37187
134 1 19.6221 46.0875 20.9181 -3.36227
130 2 17.1541 47.2308 21.829 -3.34296
131 1 16.3378 49.7107 20.8495 -3.33669
138 1 16.2603 47.3465 18.9769 -3.34521
133 2 22.1143 47.2308 21.829 -3.34296
136 1 18.8152 48.5578 19.9025 -3.33651
137 1 21.2205 47.3465 18.9769 -3.34521
141 2 18.8075 50.9279 21.829 -3.34805
144 1 21.298 49.7107 20.8495 -3.33669
142 1 23.7754 48.5578 19.9025 -3.33651
143 2 23.7677 50.9279 21.829 -3.34805
