LAMMPS (29 Aug 2024 - Update 2)
#---------------------------------------------------------------------------------------------------
# Initilise important features of simulation
#---------------------------------------------------------------------------------------------------
units 		metal	# Use metals units (Ang, ps, eV, bar, etc.)
dimension 	3		# Run the simulation in three dimensions
boundary 	p p p	# Use periodic boundaries in all three dimensions
atom_style 	atomic	#
#box tilt large		# Allow larger than normal tilt factors

variable T_start equal 600
variable T_end equal 200
variable tstep equal 0.002
timestep ${tstep}
timestep 0.002

read_data   lammps.txt	# Read in atom coordinates from a file
Reading data file ...
  triclinic box = (0 0 0) to (9.9204335 11.091382 23.734581) with tilt (4.9602167 19.840867 32.165007)
WARNING: Triclinic box skew is large. LAMMPS will run inefficiently. (src/domain.cpp:221)
  1 by 1 by 1 MPI processor grid
  reading atoms ...
  144 atoms
  read_data CPU = 0.001 seconds

#---------------------------------------------------------------------------------------------------
# Define how the forces between the atoms will be modelled
#---------------------------------------------------------------------------------------------------
pair_style eam/alloy
pair_coeff * * Zope-Ti-Al-2003.eam.alloy.txt Al Al

#---------------------------------------------------------------------------------------------------
# Set behaviour of simulation
#---------------------------------------------------------------------------------------------------
group g_fixed type 2
36 atoms in group g_fixed
group g_other type 1
108 atoms in group g_other
fix f_freeze g_fixed setforce 0.0 0.0 0.0 	# Hold atoms of type 2 fixed in place
#fix f_constrain g_other setforce 0.0 0.0 NULL 	# All atoms of type 1 to move only in z direction

#---------------------------------------------------------------------------------------------------
# Specify what information to write out
#---------------------------------------------------------------------------------------------------
thermo_style custom step atoms temp pe ke etotal fmax
thermo_modify format 6 %20.10f
thermo 1000

#compute statom all stress/atom NULL
compute peatom all pe/atom
dump 1 all custom 100000 dump.* id type x y z c_peatom
dump_modify 1 first yes


#---------------------------------------------------------------------------------------------------
# Initial relaxation
#---------------------------------------------------------------------------------------------------
velocity all set 0.0 0.0 0.0

min_style 	cg
min_modify dmax 0.1
minimize 	0.0 1.0e-6 10000 100000
Neighbor list info ...
  update: every = 1 steps, delay = 0 steps, check = yes
  max neighbors/atom: 2000, page size: 100000
  master list distance cutoff = 8.724884
  ghost atom cutoff = 8.724884
  binsize = 4.362442, bins = 8 10 6
  1 neighbor lists, perpetual/occasional/extra = 1 0 0
  (1) pair eam/alloy, perpetual
      attributes: half, newton on
      pair build: half/bin/atomonly/newton/tri
      stencil: half/bin/3d/tri
      bin: standard
Per MPI rank memory allocation (min/avg/max) = 4.656 | 4.656 | 4.656 Mbytes
   Step        Atoms         Temp          PotEng         KinEng         TotEng          Fmax     
         0         144   0             -455.19133      0                  -455.1913282270  4.463143     
       105         144   0             -474.33213      0                  -474.3321348616  1.5047489e-07
Loop time of 0.0175277 on 1 procs for 105 steps with 144 atoms

99.2% CPU use with 1 MPI tasks x no OpenMP threads

Minimization stats:
  Stopping criterion = force tolerance
  Energy initial, next-to-last, final = 
     -455.191328226951  -474.332134861582  -474.332134861583
  Force two-norm initial, final = 19.653495 8.8833853e-07
  Force max component initial, final = 4.463143 1.5047489e-07
  Final line search alpha, max atom move = 1 1.5047489e-07
  Iterations, force evaluations = 105 198

MPI task timing breakdown:
Section |  min time  |  avg time  |  max time  |%varavg| %total
---------------------------------------------------------------
Pair    | 0.01551    | 0.01551    | 0.01551    |   0.0 | 88.49
Neigh   | 0.00047121 | 0.00047121 | 0.00047121 |   0.0 |  2.69
Comm    | 0.00085179 | 0.00085179 | 0.00085179 |   0.0 |  4.86
Output  | 0          | 0          | 0          |   0.0 |  0.00
Modify  | 2.962e-05  | 2.962e-05  | 2.962e-05  |   0.0 |  0.17
Other   |            | 0.0006649  |            |       |  3.79

Nlocal:            144 ave         144 max         144 min
Histogram: 1 0 0 0 0 0 0 0 0 0
Nghost:           2490 ave        2490 max        2490 min
Histogram: 1 0 0 0 0 0 0 0 0 0
Neighs:          11080 ave       11080 max       11080 min
Histogram: 1 0 0 0 0 0 0 0 0 0

Total # of neighbors = 11080
Ave neighs/atom = 76.944444
Neighbor list builds = 1
Dangerous builds = 0
#---------------------------------------------------------------------------------------------------
# Anneal boundary structures
#---------------------------------------------------------------------------------------------------
reset_timestep 100000
fix md g_other nvt temp ${T_start} ${T_end} $(100.0*v_tstep)
fix md g_other nvt temp 600 ${T_end} $(100.0*v_tstep)
fix md g_other nvt temp 600 200 $(100.0*v_tstep)
fix md g_other nvt temp 600 200 0.2000000000000000111

velocity all create ${T_start} 4928459 rot yes mom yes dist gaussian
velocity all create 600 4928459 rot yes mom yes dist gaussian
run 10000
Per MPI rank memory allocation (min/avg/max) = 4.913 | 4.913 | 4.913 Mbytes
   Step        Atoms         Temp          PotEng         KinEng         TotEng          Fmax     
    100000         144   600           -474.33213      11.09052           -463.2416144206  1.5047489e-07
    101000         144   578.23166     -466.11746      10.68815           -455.4293085017  1.2062899    
    102000         144   584.78176     -466.18645      10.809224          -455.3772281088  1.6267467    
    103000         144   529.96651     -466.88626      9.7960074          -457.0902529598  1.1106451    
    104000         144   511.61965     -467.40517      9.4568803          -457.9482863799  1.2511742    
    105000         144   489.15117     -468.21703      9.0415684          -459.1754601390  1.1142783    
    106000         144   440.22382     -468.83494      8.1371855          -460.6977537710  1.0391866    
    107000         144   420.97186     -470.12248      7.7813284          -462.3411486554  1.0088863    
    108000         144   387.2018      -470.44617      7.1571157          -463.2890527425  0.95923629   
    109000         144   367.96373     -470.95965      6.8015155          -464.1581351879  0.99898723   
    110000         144   328.70881     -471.22938      6.0759196          -465.1534642707  0.89787352   
Loop time of 0.851972 on 1 procs for 10000 steps with 144 atoms

Performance: 2028.235 ns/day, 0.012 hours/ns, 11737.469 timesteps/s, 1.690 Matom-step/s
99.9% CPU use with 1 MPI tasks x no OpenMP threads

MPI task timing breakdown:
Section |  min time  |  avg time  |  max time  |%varavg| %total
---------------------------------------------------------------
Pair    | 0.73887    | 0.73887    | 0.73887    |   0.0 | 86.72
Neigh   | 0.048514   | 0.048514   | 0.048514   |   0.0 |  5.69
Comm    | 0.043476   | 0.043476   | 0.043476   |   0.0 |  5.10
Output  | 4.3751e-05 | 4.3751e-05 | 4.3751e-05 |   0.0 |  0.01
Modify  | 0.010526   | 0.010526   | 0.010526   |   0.0 |  1.24
Other   |            | 0.01055    |            |       |  1.24

Nlocal:            144 ave         144 max         144 min
Histogram: 1 0 0 0 0 0 0 0 0 0
Nghost:           2502 ave        2502 max        2502 min
Histogram: 1 0 0 0 0 0 0 0 0 0
Neighs:          11066 ave       11066 max       11066 min
Histogram: 1 0 0 0 0 0 0 0 0 0

Total # of neighbors = 11066
Ave neighs/atom = 76.847222
Neighbor list builds = 106
Dangerous builds = 0
unfix md

#---------------------------------------------------------------------------------------------------
# Final relaxation
#---------------------------------------------------------------------------------------------------
velocity all set 0.0 0.0 0.0

min_style 	cg
min_modify dmax 0.1
minimize 	0.0 1.0e-6 10000 100000
Per MPI rank memory allocation (min/avg/max) = 6.038 | 6.038 | 6.038 Mbytes
   Step        Atoms         Temp          PotEng         KinEng         TotEng          Fmax     
    110000         144   0             -471.22938      0                  -471.2293838443  0.89787352   
    110111         144   0             -474.46439      0                  -474.4643885773  1.9035937e-07
Loop time of 0.0186275 on 1 procs for 111 steps with 144 atoms

98.6% CPU use with 1 MPI tasks x no OpenMP threads

Minimization stats:
  Stopping criterion = force tolerance
  Energy initial, next-to-last, final = 
      -471.22938384434   -474.46438857728  -474.464388577278
  Force two-norm initial, final = 5.0004605 8.5760433e-07
  Force max component initial, final = 0.89787352 1.9035937e-07
  Final line search alpha, max atom move = 1 1.9035937e-07
  Iterations, force evaluations = 111 218

MPI task timing breakdown:
Section |  min time  |  avg time  |  max time  |%varavg| %total
---------------------------------------------------------------
Pair    | 0.016894   | 0.016894   | 0.016894   |   0.0 | 90.69
Neigh   | 0          | 0          | 0          |   0.0 |  0.00
Comm    | 0.00090632 | 0.00090632 | 0.00090632 |   0.0 |  4.87
Output  | 0          | 0          | 0          |   0.0 |  0.00
Modify  | 3.0791e-05 | 3.0791e-05 | 3.0791e-05 |   0.0 |  0.17
Other   |            | 0.0007964  |            |       |  4.28

Nlocal:            144 ave         144 max         144 min
Histogram: 1 0 0 0 0 0 0 0 0 0
Nghost:           2487 ave        2487 max        2487 min
Histogram: 1 0 0 0 0 0 0 0 0 0
Neighs:          11134 ave       11134 max       11134 min
Histogram: 1 0 0 0 0 0 0 0 0 0

Total # of neighbors = 11134
Ave neighs/atom = 77.319444
Neighbor list builds = 0
Dangerous builds = 0

Total wall time: 0:00:00
