ITEM: TIMESTEP
100000
ITEM: NUMBER OF ATOMS
144
ITEM: BOX BOUNDS xy xz yz pp pp pp
0.0000000000000000e+00 3.6581598377377539e+01 4.9602167291359365e+00
0.0000000000000000e+00 5.8507038939504952e+01 2.1700948189969729e+01
0.0000000000000000e+00 1.9734580741297954e+01 4.7415657150025339e+01
ITEM: ATOMS id type x y z c_peatom
70 2 0 0 0 -3.28062
82 2 1.65341 3.69713 0 -3.31295
69 2 4.96022 5.335e-16 0 -3.28062
81 2 6.61362 3.69713 0 -3.31295
80 2 4.13351 4.80627 0.905608 -3.31452
86 1 4.09235 7.00396 2.59018 -3.34625
91 2 9.09373 4.80627 0.905608 -3.31452
92 1 9.05256 7.00396 2.59018 -3.34625
93 1 6.58382 5.87767 1.65558 -3.29462
94 2 5.78692 8.50339 0.905608 -3.29383
95 2 8.26703 7.39425 0 -3.31295
76 1 11.544 5.87767 1.65558 -3.29462
96 2 13.2272 7.39425 0 -3.31295
104 2 10.7471 8.50339 0.905608 -3.29383
68 2 7.44033 12.2005 0.905608 -3.31672
100 1 5.75113 10.609 2.48182 -3.23336
102 1 8.31334 11.6576 3.42117 -3.30529
106 1 8.2351 9.56186 1.69001 -3.32172
101 1 5.86938 12.7158 4.10036 -3.28301
77 2 12.4005 12.2005 0.905608 -3.31672
79 1 9.91985 13.2126 1.61849 -3.27484
90 1 13.1953 9.56186 1.69001 -3.32172
103 1 13.2736 11.6576 3.42117 -3.30529
105 1 10.7113 10.609 2.48182 -3.23336
108 1 10.8296 12.7158 4.10036 -3.28301
67 1 14.8801 13.2126 1.61849 -3.27484
72 1 7.48719 14.262 2.46346 -3.23515
73 1 7.5792 16.3096 4.02383 -3.22112
74 1 10.0112 15.2742 3.24329 -3.22238
78 1 12.4474 14.262 2.46346 -3.23515
84 1 12.5394 16.3096 4.02383 -3.22112
85 1 10.1642 17.279 4.86014 -3.17969
75 1 14.9714 15.2742 3.24329 -3.22238
71 1 15.1244 17.279 4.86014 -3.17969
88 1 11.5351 19.0537 3.38771 -3.26927
89 1 16.4953 19.0537 3.38771 -3.26927
98 1 13.9226 20.292 4.36101 -3.29652
87 1 18.8828 20.292 4.36101 -3.29652
109 1 8.27703 13.82 5.00025 -3.27331
35 1 10.6073 14.7605 5.80314 -3.2519
97 1 13.2373 13.82 5.00025 -3.27331
21 1 15.5675 14.7605 5.80314 -3.2519
1 1 12.8108 18.3232 5.65476 -3.18554
6 1 13.2452 20.4233 7.23804 -3.26496
7 1 10.8814 21.4755 8.14997 -3.3061
9 1 10.5272 19.2822 6.49846 -3.09272
99 1 11.317 21.0712 4.94913 -2.90306
2 1 17.771 18.3232 5.65476 -3.18554
3 1 15.4875 19.2822 6.49846 -3.09272
4 1 18.2054 20.4233 7.23804 -3.26496
13 1 15.8416 21.4755 8.14997 -3.3061
83 1 16.2773 21.0712 4.94913 -2.90306
22 1 12.8847 26.9206 6.62974 -3.22184
5 1 12.5093 22.5781 6.04318 -2.72292
8 2 13.3306 22.5987 8.96168 -3.35741
17 1 11.9284 24.3546 7.50387 -2.99725
44 1 17.8449 26.9206 6.62974 -3.22184
14 1 17.4695 22.5781 6.04318 -2.72292
10 2 18.2908 22.5987 8.96168 -3.35741
15 1 14.7772 23.1175 6.46512 -3.14687
16 1 16.8886 24.3546 7.50387 -2.99725
31 2 16.6374 26.2958 8.96168 -3.22599
34 1 14.2881 25.2291 8.18466 -3.29226
18 1 19.2484 25.2291 8.18466 -3.29226
19 2 21.5976 26.2958 8.96168 -3.22599
20 1 19.7374 23.1175 6.46512 -3.14687
36 1 15.1709 27.8942 7.43207 -3.17829
42 1 17.514 28.978 8.26773 -3.27415
53 2 14.984 29.9929 8.96168 -3.25041
41 1 20.1311 27.8942 7.43207 -3.17829
43 2 19.9442 29.9929 8.96168 -3.25041
46 1 22.4742 28.978 8.26773 -3.27415
32 2 14.1573 27.405 9.86729 -3.31738
33 2 16.6374 28.5141 10.7729 -3.25041
49 1 16.4505 30.6128 12.3025 -3.17829
52 1 14.1074 29.5291 11.4669 -3.27415
60 2 17.4641 31.1021 9.86729 -3.31738
37 2 21.5976 28.5141 10.7729 -3.25041
38 1 19.0676 29.5291 11.4669 -3.27415
39 1 21.4107 30.6128 12.3025 -3.17829
40 2 19.1175 27.405 9.86729 -3.31738
45 2 22.4243 31.1021 9.86729 -3.31738
23 2 18.2908 35.9083 10.7729 -3.35741
26 2 15.8107 34.7992 9.86729 -3.28735
54 2 14.984 32.2112 10.7729 -3.22599
58 1 17.3332 33.2779 11.5499 -3.29226
66 1 16.8442 35.3896 13.2695 -3.14687
11 2 20.7709 34.7992 9.86729 -3.28735
57 2 19.9442 32.2112 10.7729 -3.22599
59 1 19.693 34.1525 12.2307 -2.99725
61 1 21.8044 35.3896 13.2695 -3.14687
62 1 22.2935 33.2779 11.5499 -3.29226
65 1 19.1121 35.9289 13.6914 -2.72292
56 1 18.7367 31.5864 13.1048 -3.22184
12 2 23.251 35.9083 10.7729 -3.35741
63 1 24.6532 34.1525 12.2307 -2.99725
64 1 24.0723 35.9289 13.6914 -2.72292
50 1 23.6969 31.5864 13.1048 -3.22184
25 1 18.3762 38.0837 12.4965 -3.26496
28 1 21.0941 39.2248 13.2361 -3.09272
30 1 20.74 37.0316 11.5846 -3.3061
127 1 20.3043 37.4358 14.7855 -2.90306
47 1 18.8106 40.1839 14.0798 -3.18554
24 1 25.7002 37.0316 11.5846 -3.3061
27 1 23.3364 38.0837 12.4965 -3.26496
29 1 23.7708 40.1839 14.0798 -3.18554
48 1 26.0544 39.2248 13.2361 -3.09272
140 1 25.2645 37.4358 14.7855 -2.90306
51 1 21.014 43.7465 13.9314 -3.2519
55 1 25.9743 43.7465 13.9314 -3.2519
115 1 23.3443 44.6871 14.7343 -3.27331
129 1 28.3046 44.6871 14.7343 -3.27331
139 1 17.6988 38.215 15.3736 -3.29652
135 1 22.659 38.215 15.3736 -3.29652
138 1 20.0863 39.4533 16.3469 -3.26927
137 1 25.0465 39.4533 16.3469 -3.26927
107 1 21.4572 41.2281 14.8744 -3.17969
114 1 21.6102 43.2329 16.4913 -3.22238
117 1 26.4174 41.2281 14.8744 -3.17969
111 1 24.0422 42.1975 15.7107 -3.22112
112 1 24.1342 44.245 17.2711 -3.23515
113 1 26.5704 43.2329 16.4913 -3.22238
116 1 29.0024 42.1975 15.7107 -3.22112
120 1 29.0944 44.245 17.2711 -3.23515
110 1 21.7015 45.2944 18.1161 -3.27484
118 2 24.1811 46.3065 18.829 -3.31672
119 1 23.3863 48.9452 18.0446 -3.32172
122 1 26.6617 45.2944 18.1161 -3.27484
123 1 25.752 45.7913 15.6342 -3.28301
124 1 25.8702 47.898 17.2528 -3.23336
126 1 23.308 46.8494 16.3134 -3.30529
128 1 30.7122 45.7913 15.6342 -3.28301
121 2 29.1413 46.3065 18.829 -3.31672
125 1 28.2683 46.8494 16.3134 -3.30529
132 1 30.8305 47.898 17.2528 -3.23336
134 1 28.3465 48.9452 18.0446 -3.32172
130 2 25.8345 50.0036 18.829 -3.29383
131 1 25.0376 52.6294 18.079 -3.29462
133 2 30.7947 50.0036 18.829 -3.29383
136 1 27.529 51.5031 17.1444 -3.34625
141 2 27.4879 53.7008 18.829 -3.31452
144 1 29.9978 52.6294 18.079 -3.29462
142 1 32.4893 51.5031 17.1444 -3.34625
143 2 32.4481 53.7008 18.829 -3.31452
