ITEM: TIMESTEP
100000
ITEM: NUMBER OF ATOMS
144
ITEM: BOX BOUNDS xy xz yz pp pp pp
0.0000000000000000e+00 3.5961571286235539e+01 4.9602167291359365e+00
0.0000000000000000e+00 5.9893461663189896e+01 2.1080921098827734e+01
0.0000000000000000e+00 2.0734580741297954e+01 4.8802079873710291e+01
ITEM: ATOMS id type x y z c_peatom
70 2 0 0 0 -3.31565
82 2 1.65341 3.69713 0 -3.33942
69 2 4.96022 5.22617e-16 0 -3.31565
81 2 6.61362 3.69713 0 -3.33942
80 2 4.13351 4.80627 0.905608 -3.34524
86 1 4.22693 6.99358 2.57525 -3.33336
93 1 6.64786 5.85674 1.68303 -3.30287
94 2 5.78692 8.50339 0.905608 -3.33416
95 2 8.26703 7.39425 0 -3.33942
88 1 6.75226 7.956 3.32047 -3.21357
76 1 11.6081 5.85674 1.68303 -3.30287
91 2 9.09373 4.80627 0.905608 -3.34524
92 1 9.18715 6.99358 2.57525 -3.33336
96 2 13.2272 7.39425 0 -3.33942
104 2 10.7471 8.50339 0.905608 -3.33416
89 1 11.7125 7.956 3.32047 -3.21357
68 2 7.44033 12.2005 0.905608 -3.35285
100 1 5.70932 10.7475 2.54676 -3.29956
102 1 8.08506 11.8318 3.61292 -3.29266
106 1 8.23107 9.63304 1.74344 -3.37233
77 2 12.4005 12.2005 0.905608 -3.35285
79 1 9.9029 13.3058 1.70447 -3.32256
90 1 13.1913 9.63304 1.74344 -3.37233
103 1 13.0453 11.8318 3.61292 -3.29266
105 1 10.6695 10.7475 2.54676 -3.29956
108 1 10.3486 12.9111 4.33939 -3.22747
101 1 15.3088 12.9111 4.33939 -3.22747
67 1 14.8631 13.3058 1.70447 -3.32256
72 1 7.46997 14.3655 2.60016 -3.32402
73 1 7.68167 16.6011 4.27563 -3.29793
74 1 10.0545 15.4915 3.45982 -3.32224
78 1 12.4302 14.3655 2.60016 -3.32402
84 1 12.6419 16.6011 4.27563 -3.29793
85 1 10.2641 17.7425 5.16563 -3.34366
75 1 15.0147 15.4915 3.45982 -3.32224
71 1 15.2243 17.7425 5.16563 -3.34366
87 1 9.27021 20.2764 4.26876 -3.26453
99 1 11.7741 21.0092 4.86543 -2.92202
98 1 14.2304 20.2764 4.26876 -3.26453
83 1 16.7343 21.0092 4.86543 -2.92202
109 1 7.62196 14.1234 5.24321 -3.27045
35 1 9.94441 15.1708 6.09289 -3.30511
97 1 12.5822 14.1234 5.24321 -3.27045
21 1 14.9046 15.1708 6.09289 -3.30511
1 1 12.8148 18.7682 6.0258 -3.31559
5 1 11.5517 22.861 6.36359 -2.95266
6 1 12.98 21.0506 7.67631 -3.32525
7 1 10.5158 22.1691 8.71604 -3.30223
9 1 10.4045 20.0182 6.87735 -3.29965
2 1 17.775 18.7682 6.0258 -3.31559
3 1 15.3647 20.0182 6.87735 -3.29965
4 1 17.9402 21.0506 7.67631 -3.32525
13 1 15.4761 22.1691 8.71604 -3.30223
14 1 16.5119 22.861 6.36359 -2.95266
22 1 12.301 27.3894 6.93939 -3.29477
8 2 13.0206 23.2919 9.46168 -3.37515
17 1 11.458 24.8784 7.86332 -3.24175
44 1 17.2612 27.3894 6.93939 -3.29477
10 2 17.9808 23.2919 9.46168 -3.37515
15 1 14.0192 23.655 6.88762 -3.28457
16 1 16.4182 24.8784 7.86332 -3.24175
31 2 16.3274 26.989 9.46168 -3.29842
34 1 13.8906 25.8828 8.644 -3.35795
18 1 18.8508 25.8828 8.644 -3.35795
19 2 21.2876 26.989 9.46168 -3.29842
20 1 18.9794 23.655 6.88762 -3.28457
36 1 14.7102 28.4945 7.78042 -3.33268
42 1 17.1451 29.5988 8.65507 -3.34346
53 2 14.674 30.6862 9.46168 -3.32314
41 1 19.6704 28.4945 7.78042 -3.33268
43 2 19.6342 30.6862 9.46168 -3.32314
46 1 22.1053 29.5988 8.65507 -3.34346
11 2 15.5007 24.401 10.3673 -3.32996
26 2 20.4609 24.401 10.3673 -3.32996
32 2 13.8473 28.0982 10.3673 -3.35838
33 2 16.3274 29.2073 11.2729 -3.32314
49 1 16.2911 31.399 12.9542 -3.33268
52 1 13.8563 30.2946 12.0795 -3.34346
60 2 17.1541 31.7953 10.3673 -3.35838
37 2 21.2876 29.2073 11.2729 -3.32314
38 1 18.8165 30.2946 12.0795 -3.34346
39 1 21.2514 31.399 12.9542 -3.33268
40 2 18.8075 28.0982 10.3673 -3.35838
45 2 22.1143 31.7953 10.3673 -3.35838
54 2 14.674 32.9044 11.2729 -3.29842
58 1 17.1108 34.0107 12.0906 -3.35795
66 1 16.9821 36.2385 13.847 -3.28457
23 2 17.9808 36.6016 11.2729 -3.37515
57 2 19.6342 32.9044 11.2729 -3.29842
59 1 19.5433 35.015 12.8713 -3.24175
61 1 21.9424 36.2385 13.847 -3.28457
62 1 22.071 34.0107 12.0906 -3.35795
56 1 18.7004 32.5041 13.7952 -3.29477
12 2 22.941 36.6016 11.2729 -3.37515
63 1 24.5036 35.015 12.8713 -3.24175
50 1 23.6606 32.5041 13.7952 -3.29477
25 1 18.0214 38.8429 13.0583 -3.32525
28 1 20.5969 39.8753 13.8572 -3.29965
30 1 20.4855 37.7244 12.0185 -3.30223
47 1 18.1866 41.1252 14.7088 -3.31559
65 1 19.4497 37.0324 14.371 -2.95266
24 1 25.4457 37.7244 12.0185 -3.30223
27 1 22.9816 38.8429 13.0583 -3.32525
29 1 23.1468 41.1252 14.7088 -3.31559
48 1 25.5571 39.8753 13.8572 -3.29965
64 1 24.4099 37.0324 14.371 -2.95266
51 1 21.0569 44.7227 14.6417 -3.30511
55 1 26.0172 44.7227 14.6417 -3.30511
115 1 23.3794 45.77 15.4914 -3.27045
129 1 28.3396 45.77 15.4914 -3.27045
127 1 19.2272 38.8843 15.8692 -2.92202
135 1 21.7311 39.6171 16.4658 -3.26453
139 1 26.6914 39.6171 16.4658 -3.26453
140 1 24.1874 38.8843 15.8692 -2.92202
107 1 20.7372 42.1509 15.5689 -3.34366
114 1 20.9468 44.402 17.2748 -3.32224
111 1 23.3197 43.2923 16.459 -3.29793
112 1 23.5314 45.5279 18.1344 -3.32402
113 1 25.907 44.402 17.2748 -3.32224
117 1 25.6975 42.1509 15.5689 -3.34366
116 1 28.2799 43.2923 16.459 -3.29793
120 1 28.4916 45.5279 18.1344 -3.32402
110 1 21.0985 46.5876 19.0301 -3.32256
128 1 20.6528 46.9824 16.3952 -3.22747
118 2 23.561 47.6929 19.829 -3.35285
119 1 22.7703 50.2604 18.9911 -3.37233
122 1 26.0587 46.5876 19.0301 -3.32256
123 1 25.613 46.9824 16.3952 -3.22747
124 1 25.292 49.146 18.1878 -3.29956
126 1 22.9163 48.0617 17.1217 -3.29266
121 2 28.5212 47.6929 19.829 -3.35285
125 1 27.8765 48.0617 17.1217 -3.29266
132 1 30.2522 49.146 18.1878 -3.29956
134 1 27.7305 50.2604 18.9911 -3.37233
138 1 24.2491 51.9375 17.4141 -3.21357
130 2 25.2144 51.3901 19.829 -3.33416
131 1 24.3535 54.0367 19.0516 -3.30287
136 1 26.7744 52.8999 18.1593 -3.33336
141 2 26.8678 55.0872 19.829 -3.34524
137 1 29.2093 51.9375 17.4141 -3.21357
133 2 30.1747 51.3901 19.829 -3.33416
144 1 29.3137 54.0367 19.0516 -3.30287
142 1 31.7346 52.8999 18.1593 -3.33336
143 2 31.8281 55.0872 19.829 -3.34524
