ITEM: TIMESTEP
65
ITEM: NUMBER OF ATOMS
144
ITEM: BOX BOUNDS xy xz yz pp pp pp
0.0000000000000000e+00 2.7901219101389643e+01 4.9602167291359365e+00
0.0000000000000000e+00 3.9097120807915630e+01 1.3020568913981837e+01
0.0000000000000000e+00 2.1734580741297954e+01 2.8005739018436021e+01
ITEM: ATOMS id type x y z c_peatom
70 2 0 0 0 -3.3289
80 2 4.13351 4.80627 0.905608 -3.36083
82 2 1.65341 3.69713 0 -3.3572
69 2 4.96022 0 0 -3.3289
81 2 6.61362 3.69713 0 -3.3572
91 2 9.09373 4.80627 0.905608 -3.36083
86 1 4.2225 7.09847 2.66797 -3.36452
88 1 6.75157 8.16207 3.45778 -3.31358
92 1 9.18271 7.09847 2.66797 -3.36452
93 1 6.65602 5.92832 1.75702 -3.33876
94 2 5.78692 8.50339 0.905608 -3.36065
95 2 8.26703 7.39425 0 -3.3572
98 1 9.30892 9.40367 4.41108 -3.27364
106 1 8.29595 9.69081 1.80555 -3.37795
76 1 11.6162 5.92832 1.75702 -3.33876
89 1 11.7118 8.16207 3.45778 -3.31358
90 1 13.2562 9.69081 1.80555 -3.37795
96 2 13.2272 7.39425 0 -3.3572
104 2 10.7471 8.50339 0.905608 -3.36065
87 1 4.34871 9.40367 4.41108 -3.27364
68 2 7.44033 12.2005 0.905608 -3.35476
72 1 7.47169 14.5032 2.71399 -3.35921
100 1 5.81855 10.8392 2.60116 -3.30588
102 1 8.33566 12.0264 3.67123 -3.30671
109 1 8.27814 14.4293 5.42461 -3.31572
77 2 12.4005 12.2005 0.905608 -3.35476
78 1 12.4319 14.5032 2.71399 -3.35921
79 1 9.9378 13.3811 1.7901 -3.34059
97 1 13.2384 14.4293 5.42461 -3.31572
103 1 13.2959 12.0264 3.67123 -3.30671
105 1 10.7788 10.8392 2.60116 -3.30588
108 1 10.7395 13.1074 4.54606 -3.32937
67 1 14.898 13.3811 1.7901 -3.34059
101 1 15.6997 13.1074 4.54606 -3.32937
74 1 10.0222 15.6883 3.60248 -3.3449
84 1 12.5627 16.8656 4.48392 -3.31774
73 1 7.60247 16.8656 4.48392 -3.31774
75 1 14.9825 15.6883 3.60248 -3.3449
2 1 17.8255 19.1931 6.2963 -3.24473
1 1 12.8653 19.1931 6.2963 -3.24473
9 1 5.77638 9.45282 7.21704 -3.15938
3 1 10.7366 9.45282 7.21704 -3.15938
5 1 7.27692 12.2265 6.61003 -3.06946
6 1 8.62443 10.5586 8.16107 -3.19224
7 1 11.3243 22.8146 9.13729 -3.32474
8 2 8.99039 12.8937 9.96168 -3.37296
17 1 7.32705 14.3458 8.27972 -3.31306
99 1 6.82741 10.315 5.00142 -3.01937
4 1 13.5846 10.5586 8.16107 -3.19224
10 2 13.9506 12.8937 9.96168 -3.37296
13 1 16.2845 22.8146 9.13729 -3.32474
14 1 12.2371 12.2265 6.61003 -3.06946
15 1 9.77016 13.117 7.33476 -3.26987
16 1 12.2873 14.3458 8.27972 -3.31306
83 1 11.7876 10.315 5.00142 -3.01937
20 1 14.7304 13.117 7.33476 -3.26987
22 1 8.27483 16.7279 7.22457 -3.32845
31 2 12.2972 16.5909 9.96168 -3.32599
34 1 9.8215 15.4311 9.09751 -3.34943
35 1 10.7607 15.5253 6.33189 -3.36375
36 1 10.7095 17.94 8.10983 -3.35088
42 1 13.1416 19.1045 9.03339 -3.32322
44 1 13.2351 16.7279 7.22457 -3.32845
85 1 5.25839 6.9676 5.39329 -3.31473
18 1 14.7817 15.4311 9.09751 -3.34943
19 2 17.2574 16.5909 9.96168 -3.32599
21 1 15.7209 15.5253 6.33189 -3.36375
41 1 15.6697 17.94 8.10983 -3.35088
46 1 18.1018 19.1045 9.03339 -3.32322
71 1 10.2186 6.9676 5.39329 -3.31473
53 2 10.6438 20.288 9.96168 -3.33888
43 2 15.604 20.288 9.96168 -3.33888
32 2 9.8171 17.7 10.8673 -3.3623
33 2 12.2972 18.8091 11.7729 -3.33888
37 2 17.2574 18.8091 11.7729 -3.33888
40 2 14.7773 17.7 10.8673 -3.3623
49 1 12.2315 21.1571 13.6247 -3.35088
51 1 12.1803 23.5718 15.4027 -3.36375
52 1 9.79942 19.9927 12.7012 -3.32322
54 2 10.6438 22.5063 11.7729 -3.32599
58 1 13.1195 23.6661 12.6371 -3.34943
60 2 13.1239 21.3971 10.8673 -3.3623
38 1 14.7596 19.9927 12.7012 -3.32322
39 1 17.1917 21.1571 13.6247 -3.35088
45 2 18.0841 21.3971 10.8673 -3.3623
55 1 17.1405 23.5718 15.4027 -3.36375
56 1 14.6662 22.3693 14.51 -3.32845
57 2 15.604 22.5063 11.7729 -3.32599
62 1 18.0797 23.6661 12.6371 -3.34943
50 1 19.6264 22.3693 14.51 -3.32845
26 2 11.4705 25.0943 10.8673 -3.36349
66 1 13.1708 25.9801 14.3998 -3.26987
11 2 16.4307 25.0943 10.8673 -3.36349
23 2 13.9506 26.2034 11.7729 -3.37296
25 1 14.3166 28.5386 13.5735 -3.19224
30 1 11.6167 16.2825 12.5973 -3.32474
59 1 15.6139 24.7514 13.4549 -3.31306
61 1 18.1311 25.9801 14.3998 -3.26987
65 1 15.6641 26.8707 15.1245 -3.06946
12 2 18.9108 26.2034 11.7729 -3.37296
24 1 16.5769 16.2825 12.5973 -3.32474
27 1 19.2768 28.5386 13.5735 -3.19224
63 1 20.5742 24.7514 13.4549 -3.31306
64 1 20.6243 26.8707 15.1245 -3.06946
28 1 17.1646 29.6443 14.5175 -3.15938
29 1 15.0359 19.904 15.4383 -3.24473
48 1 22.1248 29.6443 14.5175 -3.15938
47 1 10.0757 19.904 15.4383 -3.24473
107 1 17.6826 32.1295 16.3413 -3.31473
114 1 12.9188 23.4088 18.1321 -3.3449
116 1 20.2987 22.2315 17.2507 -3.31774
111 1 15.3385 22.2315 17.2507 -3.31774
113 1 17.879 23.4088 18.1321 -3.3449
117 1 22.6428 32.1295 16.3413 -3.31473
110 1 13.0032 25.716 19.9445 -3.34059
128 1 12.2015 25.9897 17.1885 -3.32937
112 1 15.4693 24.594 19.0206 -3.35921
115 1 14.6629 24.6678 16.31 -3.31572
118 2 15.5007 26.8966 20.829 -3.35476
122 1 17.9634 25.716 19.9445 -3.34059
123 1 17.1617 25.9897 17.1885 -3.32937
124 1 17.1225 28.2579 19.1334 -3.30588
126 1 14.6053 27.0707 18.0634 -3.30671
127 1 16.1136 28.7821 16.7332 -3.01937
120 1 20.4295 24.594 19.0206 -3.35921
121 2 20.4609 26.8966 20.829 -3.35476
125 1 19.5656 27.0707 18.0634 -3.30671
129 1 19.6231 24.6678 16.31 -3.31572
132 1 22.0827 28.2579 19.1334 -3.30588
140 1 21.0738 28.7821 16.7332 -3.01937
139 1 23.5525 29.6934 17.3235 -3.27364
119 1 14.645 29.4063 19.929 -3.37795
130 2 17.1541 30.5937 20.829 -3.36065
131 1 16.285 33.1688 19.9776 -3.33876
138 1 16.1894 30.935 18.2768 -3.31358
133 2 22.1143 30.5937 20.829 -3.36065
134 1 19.6053 29.4063 19.929 -3.37795
135 1 18.5923 29.6934 17.3235 -3.27364
136 1 18.7185 31.9986 19.0666 -3.36452
137 1 21.1496 30.935 18.2768 -3.31358
144 1 21.2452 33.1688 19.9776 -3.33876
142 1 23.6787 31.9986 19.0666 -3.36452
141 2 18.8075 34.2909 20.829 -3.36083
143 2 23.7677 34.2909 20.829 -3.36083
