#Lammps coordinate file for CSL - Axis: [1 1 1]  Angle: (1, 3) -> 59.99999999999999  Plane indices: [0 1 1]  z-position: [4.9336451853244885 14.800935555973464]  Repeats: 1 1 (3, 3) (black, white)  Fixed: 2.228  Boundary equiv: True
144 atoms

2 atom types

0.0 9.920433458271871 xlo xhi
0.0 11.091381789479609 ylo yhi
0.0 19.734580741297954 zlo zhi
4.9602167291359365 21.08092109882773 37.71069808423068 xy xz yz

Atoms

1 1 13.020568913981833 13.309658147375533 5.339252716211904
2 1 17.980785643117766 13.309658147375531 5.339252716211904
3 1 15.5006772785498 14.418796326323491 6.24486024709932
4 1 17.980785643117766 15.527934505271453 7.150467777986734
5 1 21.287596795875057 17.0067854105354 5.339252716211904
6 1 13.020568913981831 15.527934505271453 7.150467777986734
7 1 10.540460549413865 16.637072684219415 8.05607530887415
8 2 13.020568913981833 17.746210863167377 8.961682839761563
9 1 10.540460549413865 14.418796326323495 6.244860247099318
10 2 17.980785643117766 17.746210863167377 8.961682839761563
11 2 15.500677278549801 18.855349042115336 9.867290370648979
12 2 17.980785643117766 19.964487221063298 10.772897901536393
13 1 15.5006772785498 16.637072684219415 8.05607530887415
14 1 16.32738006673912 17.0067854105354 5.339252716211904
15 1 13.847271702171156 18.115923589483362 6.244860247099318
16 1 16.32738006673912 19.225061768431324 7.150467777986734
17 1 21.287596795875057 19.225061768431324 7.150467777986734
18 1 18.807488431307092 20.334199947379286 8.05607530887415
19 2 21.28759679587506 21.443338126327244 8.961682839761563
20 1 18.80748843130709 18.115923589483362 6.24486024709932
21 1 19.634191219496415 20.70391267369527 5.339252716211902
22 1 22.114299584064383 21.813050852643233 6.244860247099318
23 2 13.020568913981833 19.964487221063298 10.772897901536393
24 1 10.540460549413865 21.07362540001126 11.678505432423808
25 1 13.020568913981833 22.18276357895922 12.584112963311222
26 2 10.540460549413865 18.85534904211534 9.867290370648979
27 1 17.98078564311777 22.18276357895922 12.584112963311222
28 1 15.500677278549801 23.29190175790718 13.489720494198638
29 1 17.98078564311777 24.401039936855142 14.395328025086053
30 1 15.500677278549801 21.07362540001126 11.678505432423808
31 2 16.327380066739124 21.443338126327248 8.961682839761563
32 2 13.847271702171156 22.552476305275206 9.867290370648979
33 2 16.327380066739124 23.66161448422317 10.772897901536393
34 1 13.847271702171156 20.334199947379286 8.05607530887415
35 1 14.673974490360477 20.70391267369527 5.339252716211902
36 1 14.673974490360477 22.922189031591195 7.150467777986734
37 2 21.28759679587506 23.66161448422317 10.772897901536393
38 1 18.807488431307092 24.77075266317113 11.678505432423808
39 1 21.28759679587506 25.879890842119092 12.584112963311224
40 2 18.807488431307092 22.552476305275206 9.867290370648979
41 1 19.634191219496415 22.92218903159119 7.150467777986734
42 1 17.154082854928447 24.031327210539157 8.05607530887415
43 2 19.634191219496415 25.140465389487115 8.961682839761563
44 1 17.154082854928447 21.813050852643233 6.244860247099318
45 2 22.114299584064383 26.249603568435077 9.867290370648977
46 1 22.114299584064383 24.031327210539153 8.05607530887415
47 1 13.020568913981833 24.401039936855145 14.395328025086052
48 1 10.540460549413867 23.291901757907183 13.489720494198638
49 1 16.327380066739124 25.879890842119092 12.584112963311222
50 1 13.847271702171158 26.98902902106705 13.489720494198638
51 1 16.327380066739124 28.098167200015013 14.395328025086053
52 1 13.847271702171156 24.77075266317113 11.678505432423808
53 2 14.673974490360479 25.140465389487115 8.961682839761563
54 2 14.673974490360479 27.35874174738304 10.772897901536393
55 1 21.28759679587506 28.098167200015013 14.395328025086052
56 1 18.807488431307092 26.98902902106705 13.48972049419864
57 2 19.634191219496415 27.35874174738304 10.772897901536393
58 1 17.154082854928447 28.467879926331 11.678505432423808
59 1 19.634191219496415 29.577018105278963 12.584112963311224
60 2 17.154082854928447 26.249603568435077 9.867290370648979
61 1 22.11429958406438 30.68615628422692 13.489720494198636
62 1 22.114299584064376 28.467879926330998 11.678505432423808
63 1 14.673974490360479 29.577018105278963 12.58411296331122
64 1 14.673974490360479 31.795294463174884 14.395328025086052
65 1 19.634191219496415 31.795294463174884 14.39532802508605
66 1 17.154082854928447 30.68615628422692 13.489720494198638
67 1 0.0 2.2182763578959226 1.8112150617748295
68 2 2.4801083645679682 1.109138178947961 0.9056075308874145
69 2 4.960216729135936 -8.881784197001252e-16 -2.220446049250313e-16
70 2 0.0 0.0 0.0
71 1 0.0 6.654829073687768 4.9336451853244885
72 1 2.4801083645679682 3.327414536843884 2.7168225926622442
73 1 2.4801083645679682 5.545690894739806 4.528037654437073
74 1 4.960216729135936 4.436552715791845 3.6224301235496585
75 1 0.0 4.436552715791845 3.6224301235496585
76 1 1.6534055763786455 5.915403621055794 1.811215061774829
77 2 7.440325093703903 1.109138178947961 0.9056075308874143
78 1 7.440325093703903 3.3274145368438837 2.7168225926622442
79 1 4.960216729135936 2.218276357895922 1.811215061774829
80 2 4.133513940946613 4.806265442107832 0.9056075308874143
81 2 6.61362230551458 3.6971272631598704 -6.661338147750939e-16
82 2 1.6534055763786455 3.697127263159871 -4.440892098500626e-16
83 1 1.6534055763786455 10.351956336847639 4.9336451853244885
84 1 7.440325093703903 5.545690894739806 4.528037654437073
85 1 4.960216729135936 6.654829073687768 4.9336451853244885
86 1 4.133513940946613 7.024541800003755 2.716822592662244
87 1 4.133513940946613 9.242818157899677 4.528037654437073
88 1 6.61362230551458 8.133679978951715 3.6224301235496585
89 1 1.6534055763786455 8.133679978951717 3.6224301235496585
90 1 3.306811152757291 9.612530884215664 1.811215061774829
91 2 9.093730670082548 4.806265442107832 0.9056075308874141
92 1 9.093730670082547 7.024541800003755 2.716822592662244
93 1 6.61362230551458 5.915403621055793 1.811215061774829
94 2 5.7869195173252574 8.503392705267704 0.9056075308874139
95 2 8.267027881893226 7.394254526319742 -9.992007221626409e-16
96 2 3.306811152757291 7.394254526319742 -8.881784197001252e-16
97 1 3.306811152757291 14.04908360000751 4.933645185324487
98 1 9.093730670082547 9.242818157899677 4.528037654437073
99 1 6.613622305514581 10.351956336847639 4.9336451853244885
100 1 5.786919517325258 10.721669063163626 2.7168225926622434
101 1 5.786919517325258 12.939945421059548 4.528037654437073
102 1 8.267027881893226 11.830807242111586 3.6224301235496585
103 1 3.306811152757291 11.830807242111588 3.6224301235496585
104 2 10.747136246461192 8.503392705267704 0.9056075308874136
105 1 10.747136246461192 10.721669063163626 2.7168225926622434
106 1 8.267027881893226 9.612530884215664 1.8112150617748286
107 1 21.08092109882773 31.05586901054291 14.800935555973467
108 1 10.747136246461192 12.939945421059548 4.528037654437073
109 1 8.267027881893226 14.04908360000751 4.933645185324487
110 1 21.08092109882773 35.492421726334754 17.923365679523123
111 1 23.561029463395695 32.16500718949087 15.20654308686088
112 1 23.5610294633957 34.383283547386796 17.01775814863571
113 1 26.041137827963663 33.27414536843884 16.112150617748295
114 1 21.08092109882773 33.27414536843884 16.112150617748295
115 1 22.734326675206376 34.752996273702784 14.800935555973464
116 1 28.521246192531628 32.16500718949087 15.20654308686088
117 1 26.041137827963663 31.05586901054291 14.800935555973464
118 2 23.5610294633957 36.60155990528272 18.82897321041054
119 1 22.734326675206376 39.18954898949463 17.923365679523123
120 1 28.521246192531628 34.383283547386796 17.017758148635707
121 2 28.521246192531635 36.60155990528272 18.82897321041054
122 1 26.041137827963666 35.492421726334754 17.923365679523126
123 1 25.21443503977434 35.86213445265074 15.20654308686088
124 1 25.214435039774344 38.080410810546674 17.01775814863571
125 1 27.694543404342312 36.97127263159871 16.112150617748295
126 1 22.734326675206376 36.97127263159871 16.112150617748295
127 1 24.38773225158502 38.450123536862655 14.800935555973464
128 1 30.17465176891028 35.86213445265074 15.20654308686088
129 1 27.694543404342312 34.752996273702784 14.800935555973464
130 2 25.214435039774344 40.29868716844259 18.82897321041054
131 1 24.38773225158502 42.8866762526545 17.923365679523123
132 1 30.17465176891028 38.08041081054667 17.017758148635707
133 2 30.17465176891028 40.29868716844259 18.82897321041054
134 1 27.694543404342312 39.18954898949463 17.923365679523126
135 1 26.86784061615299 39.55926171581062 15.20654308686088
136 1 26.86784061615299 41.777538073706545 17.01775814863571
137 1 29.347948980720957 40.66839989475858 16.112150617748295
138 1 24.38773225158502 40.66839989475858 16.112150617748295
139 1 31.828057345288926 39.55926171581062 15.20654308686088
140 1 29.347948980720957 38.450123536862655 14.800935555973464
141 2 26.86784061615299 43.99581443160247 18.82897321041054
142 1 31.828057345288926 41.77753807370654 17.017758148635707
143 2 31.828057345288926 43.99581443160247 18.82897321041054
144 1 29.347948980720957 42.8866762526545 17.923365679523126
