ITEM: TIMESTEP
0
ITEM: NUMBER OF ATOMS
144
ITEM: BOX BOUNDS xy xz yz pp pp pp
0.0000000000000000e+00 3.2241408739383587e+01 4.9602167291359365e+00
0.0000000000000000e+00 4.3256388978970477e+01 1.7360758551975778e+01
0.0000000000000000e+00 2.3734580741297954e+01 3.2165007189490872e+01
ITEM: ATOMS id type x y z c_peatom
70 2 0 0 0 -3.3739
82 2 1.65341 3.69713 0 -3.3739
69 2 4.96022 0 0 -3.3739
81 2 6.61362 3.69713 0 -3.3739
80 2 4.13351 4.80627 0.905608 -3.36818
86 1 4.13351 7.02454 2.71682 -3.35275
88 1 6.61362 8.13368 3.62243 -3.30968
91 2 9.09373 4.80627 0.905608 -3.36818
92 1 9.09373 7.02454 2.71682 -3.35275
93 1 6.61362 5.9154 1.81122 -3.38397
94 2 5.78692 8.50339 0.905608 -3.36818
95 2 8.26703 7.39425 0 -3.3739
98 1 9.09373 9.24282 4.52804 -3.16025
76 1 11.5738 5.9154 1.81122 -3.38397
89 1 11.5738 8.13368 3.62243 -3.30968
96 2 13.2272 7.39425 0 -3.3739
104 2 10.7471 8.50339 0.905608 -3.36818
87 1 14.0539 9.24282 4.52804 -3.16025
68 2 7.44033 12.2005 0.905608 -3.36818
100 1 5.78692 10.7217 2.71682 -3.36317
102 1 8.26703 11.8308 3.62243 -3.3022
106 1 8.26703 9.61253 1.81122 -3.38645
77 2 12.4005 12.2005 0.905608 -3.36818
79 1 9.92043 13.3097 1.81122 -3.38128
90 1 13.2272 9.61253 1.81122 -3.38645
103 1 13.2272 11.8308 3.62243 -3.3022
105 1 10.7471 10.7217 2.71682 -3.36317
108 1 10.7471 12.9399 4.52804 -3.18805
67 1 14.8807 13.3097 1.81122 -3.38128
101 1 15.7074 12.9399 4.52804 -3.18805
72 1 7.44033 14.4188 2.71682 -3.33256
74 1 9.92043 15.5279 3.62243 -3.27484
78 1 12.4005 14.4188 2.71682 -3.33256
84 1 12.4005 16.6371 4.52804 -3.16091
73 1 17.3608 16.6371 4.52804 -3.16091
75 1 14.8807 15.5279 3.62243 -3.27484
2 1 6.20027 10.5368 7.33925 -1.46697
9 1 8.68038 11.646 8.24486 -3.28389
99 1 6.61362 10.352 5.93365 -1.36459
109 1 8.26703 14.0491 5.93365 -2.39633
1 1 11.1605 10.5368 7.33925 -1.46697
3 1 13.6406 11.646 8.24486 -3.28389
5 1 9.50708 14.2339 7.33925 -2.40505
6 1 11.1605 12.7551 9.15047 -3.38924
83 1 11.5738 10.352 5.93365 -1.36459
97 1 13.2272 14.0491 5.93365 -2.39633
4 1 16.1207 12.7551 9.15047 -3.38924
14 1 14.4673 14.2339 7.33925 -2.40505
15 1 11.9872 15.3431 8.24486 -3.25669
17 1 9.50708 16.4522 9.15047 -3.36458
22 1 10.3338 19.0402 8.24486 -3.21238
35 1 12.8139 17.9311 7.33925 -3.0393
85 1 9.92043 17.7462 5.93365 -2.93617
16 1 14.4673 16.4522 9.15047 -3.36458
20 1 16.9474 15.3431 8.24486 -3.25669
21 1 17.7741 17.9311 7.33925 -3.0393
44 1 15.294 19.0402 8.24486 -3.21238
71 1 14.8807 17.7462 5.93365 -2.93617
36 1 12.8139 20.1493 9.15047 -3.34839
41 1 17.7741 20.1493 9.15047 -3.34839
7 1 8.68038 13.8642 10.0561 -3.41274
13 1 13.6406 13.8642 10.0561 -3.41274
8 2 11.1605 14.9734 10.9617 -3.37307
34 1 11.9872 17.5614 10.0561 -3.37771
10 2 16.1207 14.9734 10.9617 -3.37307
18 1 16.9474 17.5614 10.0561 -3.37771
31 2 14.4673 18.6705 10.9617 -3.37756
19 2 19.4275 18.6705 10.9617 -3.37756
32 2 11.9872 19.7796 11.8673 -3.37444
52 1 11.9872 21.9979 13.6785 -3.39426
53 2 12.8139 22.3676 10.9617 -3.37228
33 2 14.4673 20.8888 12.7729 -3.37228
38 1 16.9474 21.9979 13.6785 -3.39426
40 2 16.9474 19.7796 11.8673 -3.37444
42 1 15.294 21.2585 10.0561 -3.39426
43 2 17.7741 22.3676 10.9617 -3.37228
60 2 15.294 23.4768 11.8673 -3.37444
37 2 19.4275 20.8888 12.7729 -3.37228
45 2 20.2542 23.4768 11.8673 -3.37444
46 1 20.2542 21.2585 10.0561 -3.39426
54 2 12.8139 24.5859 12.7729 -3.37756
23 2 16.1207 28.283 12.7729 -3.37307
57 2 17.7741 24.5859 12.7729 -3.37756
58 1 15.294 25.695 13.6785 -3.37771
11 2 18.6008 27.1739 11.8673 -3.37375
12 2 21.0809 28.283 12.7729 -3.37307
62 1 20.2542 25.695 13.6785 -3.37771
26 2 23.561 27.1739 11.8673 -3.37375
30 1 18.6008 29.3922 13.6785 -3.41274
24 1 23.561 29.3922 13.6785 -3.41274
49 1 14.4673 23.107 14.5841 -3.34839
39 1 19.4275 23.107 14.5841 -3.34839
51 1 14.4673 25.3253 16.3953 -3.0393
56 1 16.9474 24.2162 15.4897 -3.21238
59 1 17.7741 26.8042 14.5841 -3.36458
66 1 15.294 27.9133 15.4897 -3.25669
107 1 17.3608 25.5102 17.8009 -2.93617
50 1 21.9076 24.2162 15.4897 -3.21238
55 1 19.4275 25.3253 16.3953 -3.0393
61 1 20.2542 27.9133 15.4897 -3.25669
63 1 22.7343 26.8042 14.5841 -3.36458
117 1 22.321 25.5102 17.8009 -2.93617
25 1 16.1207 30.5013 14.5841 -3.38924
65 1 17.7741 29.0224 16.3953 -2.40505
27 1 21.0809 30.5013 14.5841 -3.38924
28 1 18.6008 31.6104 15.4897 -3.28389
29 1 21.0809 32.7196 16.3953 -1.46697
64 1 22.7343 29.0224 16.3953 -2.40505
115 1 19.0142 29.2073 17.8009 -2.39633
127 1 20.6676 32.9044 17.8009 -1.36459
47 1 26.0411 32.7196 16.3953 -1.46697
48 1 23.561 31.6104 15.4897 -3.28389
129 1 23.9744 29.2073 17.8009 -2.39633
140 1 25.6278 32.9044 17.8009 -1.36459
114 1 17.3608 27.7285 20.1122 -3.27484
116 1 14.8807 26.6193 19.2065 -3.16091
111 1 19.8409 26.6193 19.2065 -3.16091
113 1 22.321 27.7285 20.1122 -3.27484
110 1 17.3608 29.9467 21.9234 -3.38128
128 1 16.5341 30.3164 19.2065 -3.18805
112 1 19.8409 28.8376 21.0178 -3.33256
118 2 19.8409 31.0559 22.829 -3.36818
122 1 22.321 29.9467 21.9234 -3.38128
123 1 21.4943 30.3164 19.2065 -3.18805
124 1 21.4943 32.5347 21.0178 -3.36317
126 1 19.0142 31.4256 20.1122 -3.3022
120 1 24.8011 28.8376 21.0178 -3.33256
121 2 24.8011 31.0559 22.829 -3.36818
125 1 23.9744 31.4256 20.1122 -3.3022
132 1 26.4545 32.5347 21.0178 -3.36317
139 1 18.1875 34.0136 19.2065 -3.16025
119 1 19.0142 33.6439 21.9234 -3.38645
130 2 21.4943 34.753 22.829 -3.36818
131 1 20.6676 37.341 21.9234 -3.38397
138 1 20.6676 35.1227 20.1122 -3.30968
133 2 26.4545 34.753 22.829 -3.36818
134 1 23.9744 33.6439 21.9234 -3.38645
135 1 23.1477 34.0136 19.2065 -3.16025
136 1 23.1477 36.2318 21.0178 -3.35275
137 1 25.6278 35.1227 20.1122 -3.30968
144 1 25.6278 37.341 21.9234 -3.38397
142 1 28.1079 36.2318 21.0178 -3.35275
141 2 23.1477 38.4501 22.829 -3.36818
143 2 28.1079 38.4501 22.829 -3.36818
