#Lammps coordinate file for CSL - Axis: [1 1 1]  Angle: (1, 3) -> 59.99999999999999  Plane indices: [0 1 1]  z-position: [6.1836451853244885 18.550935555973464]  Repeats: 1 1 (3, 3) (black, white)  Fixed: 2.228  Boundary equiv: True
144 atoms

2 atom types

0.0 9.920433458271871 xlo xhi
0.0 11.091381789479609 ylo yhi
0.0 24.734580741297954 zlo zhi
4.9602167291359365 4.34018963799395 36.32427536054573 xy xz yz

Atoms

1 1 4.650203183564941 12.616446785533057 7.839252716211904
2 1 9.610419912700873 12.616446785533057 7.839252716211904
3 1 7.130311548132909 13.725584964481017 8.74486024709932
4 1 9.610419912700875 14.83472314342898 9.650467777986734
5 1 12.917231065458166 16.313574048692928 7.839252716211904
6 1 4.6502031835649404 14.83472314342898 9.650467777986734
7 1 2.170094818996974 15.943861322376941 10.55607530887415
8 2 4.650203183564941 17.0529995013249 11.461682839761563
9 1 2.170094818996974 13.725584964481019 8.744860247099318
10 2 9.610419912700875 17.0529995013249 11.461682839761563
11 2 7.13031154813291 18.162137680272863 12.367290370648979
12 2 9.610419912700877 19.27127585922082 13.272897901536393
13 1 7.130311548132909 15.943861322376941 10.55607530887415
14 1 7.95701433632223 16.313574048692928 7.839252716211904
15 1 5.476905971754264 17.422712227640886 8.744860247099318
16 1 7.9570143363222305 18.531850406588852 9.650467777986734
17 1 12.917231065458166 18.53185040658885 9.650467777986734
18 1 10.4371227008902 19.64098858553681 10.55607530887415
19 2 12.917231065458168 20.75012676448477 11.461682839761563
20 1 10.437122700890198 17.422712227640886 8.74486024709932
21 1 11.263825489079522 20.0107013118528 7.839252716211903
22 1 13.74393385364749 21.119839490800757 8.744860247099318
23 2 4.650203183564942 19.27127585922082 13.272897901536393
24 1 2.170094818996975 20.380414038168787 14.178505432423808
25 1 4.650203183564942 21.489552217116746 15.084112963311222
26 2 2.170094818996975 18.162137680272863 12.367290370648979
27 1 9.610419912700877 21.489552217116746 15.084112963311222
28 1 7.1303115481329105 22.598690396064704 15.989720494198638
29 1 9.610419912700877 23.70782857501267 16.89532802508605
30 1 7.1303115481329105 20.380414038168787 14.178505432423808
31 2 7.957014336322231 20.750126764484772 11.461682839761563
32 2 5.476905971754265 21.859264943432734 12.367290370648979
33 2 7.957014336322231 22.968403122380693 13.272897901536393
34 1 5.476905971754265 19.64098858553681 10.55607530887415
35 1 6.303608759943586 20.0107013118528 7.839252716211903
36 1 6.303608759943586 22.228977669748723 9.650467777986734
37 2 12.917231065458168 22.968403122380693 13.272897901536393
38 1 10.4371227008902 24.077541301328658 14.178505432423808
39 1 12.917231065458168 25.186679480276617 15.084112963311224
40 2 10.4371227008902 21.859264943432734 12.367290370648979
41 1 11.263825489079522 22.228977669748716 9.650467777986734
42 1 8.783717124511554 23.33811584869668 10.55607530887415
43 2 11.263825489079522 24.44725402764464 11.461682839761563
44 1 8.783717124511554 21.119839490800757 8.744860247099318
45 2 13.74393385364749 25.556392206592605 12.367290370648977
46 1 13.74393385364749 23.33811584869668 10.55607530887415
47 1 4.650203183564943 23.70782857501267 16.89532802508605
48 1 2.1700948189969758 22.59869039606471 15.989720494198638
49 1 7.957014336322232 25.186679480276617 15.084112963311222
50 1 5.476905971754267 26.295817659224575 15.989720494198638
51 1 7.957014336322233 27.40495583817254 16.89532802508605
52 1 5.476905971754266 24.077541301328658 14.178505432423808
53 2 6.303608759943587 24.44725402764464 11.461682839761563
54 2 6.303608759943588 26.665530385540563 13.272897901536393
55 1 12.917231065458168 27.40495583817254 16.89532802508605
56 1 10.4371227008902 26.295817659224575 15.98972049419864
57 2 11.263825489079522 26.665530385540563 13.272897901536393
58 1 8.783717124511556 27.77466856448853 14.178505432423808
59 1 11.263825489079524 28.883806743436487 15.084112963311224
60 2 8.783717124511554 25.556392206592605 12.367290370648979
61 1 13.743933853647489 29.992944922384446 15.989720494198636
62 1 13.743933853647487 27.774668564488522 14.178505432423808
63 1 6.303608759943588 28.883806743436487 15.08411296331122
64 1 6.303608759943588 31.10208310133241 16.89532802508605
65 1 11.263825489079524 31.10208310133241 16.895328025086048
66 1 8.783717124511556 29.992944922384446 15.989720494198638
67 1 0.0 2.2182763578959226 1.8112150617748295
68 2 2.480108364567968 1.109138178947961 0.9056075308874145
69 2 4.960216729135936 0.0 -2.220446049250313e-16
70 2 0.0 0.0 0.0
71 1 4.440892098500626e-16 6.654829073687768 6.1836451853244885
72 1 2.480108364567968 3.327414536843884 2.7168225926622442
73 1 2.4801083645679682 5.545690894739806 4.528037654437074
74 1 4.960216729135936 4.436552715791845 3.622430123549659
75 1 4.440892098500626e-16 4.436552715791845 3.622430123549659
76 1 1.6534055763786455 5.915403621055794 1.811215061774829
77 2 7.440325093703903 1.109138178947961 0.9056075308874144
78 1 7.440325093703903 3.3274145368438837 2.7168225926622442
79 1 4.960216729135936 2.218276357895922 1.8112150617748293
80 2 4.133513940946613 4.806265442107832 0.9056075308874142
81 2 6.61362230551458 3.6971272631598704 -6.661338147750939e-16
82 2 1.6534055763786453 3.697127263159871 -4.440892098500626e-16
83 1 1.6534055763786455 10.351956336847639 6.1836451853244885
84 1 7.440325093703903 5.545690894739806 4.528037654437074
85 1 4.960216729135936 6.654829073687768 6.1836451853244885
86 1 4.133513940946613 7.024541800003755 2.7168225926622434
87 1 4.133513940946613 9.242818157899677 4.528037654437074
88 1 6.61362230551458 8.133679978951715 3.622430123549658
89 1 1.6534055763786457 8.133679978951717 3.622430123549658
90 1 3.3068111527572905 9.612530884215664 1.8112150617748288
91 2 9.093730670082548 4.806265442107832 0.9056075308874141
92 1 9.093730670082547 7.024541800003755 2.7168225926622434
93 1 6.61362230551458 5.915403621055793 1.8112150617748288
94 2 5.7869195173252574 8.503392705267704 0.9056075308874137
95 2 8.267027881893226 7.394254526319742 -1.1102230246251565e-15
96 2 3.3068111527572905 7.394254526319742 -8.881784197001252e-16
97 1 3.306811152757291 14.04908360000751 6.183645185324488
98 1 9.093730670082547 9.242818157899677 4.528037654437074
99 1 6.613622305514581 10.351956336847639 6.1836451853244885
100 1 5.786919517325258 10.721669063163626 2.7168225926622434
101 1 5.786919517325258 12.939945421059548 4.528037654437073
102 1 8.267027881893226 11.830807242111586 3.622430123549658
103 1 3.306811152757291 11.830807242111588 3.622430123549658
104 2 10.747136246461192 8.503392705267704 0.9056075308874136
105 1 10.747136246461192 10.721669063163626 2.7168225926622434
106 1 8.267027881893226 9.612530884215664 1.8112150617748286
107 1 4.340189637993946 29.669446286857962 18.550935555973467
108 1 10.747136246461192 12.939945421059548 4.528037654437073
109 1 8.267027881893226 14.04908360000751 6.183645185324488
110 1 4.340189637993946 34.1059990026498 22.923365679523123
111 1 6.820298002561913 30.77858446580592 20.20654308686088
112 1 6.820298002561914 32.996860823701844 22.01775814863571
113 1 9.300406367129881 31.887722644753886 21.112150617748295
114 1 4.340189637993946 31.887722644753886 21.112150617748295
115 1 5.993595214372591 33.36657355001783 18.550935555973464
116 1 11.78051473169785 30.77858446580592 20.20654308686088
117 1 9.300406367129881 29.669446286857962 18.550935555973464
118 2 6.820298002561914 35.21513718159777 23.82897321041054
119 1 5.993595214372592 37.803126265809674 22.923365679523123
120 1 11.78051473169785 32.996860823701844 22.017758148635707
121 2 11.78051473169785 35.21513718159777 23.82897321041054
122 1 9.300406367129881 34.1059990026498 22.923365679523126
123 1 8.473703578940558 34.47571172896579 20.20654308686088
124 1 8.47370357894056 36.693988086861715 22.01775814863571
125 1 10.953811943508526 35.58484990791376 21.112150617748295
126 1 5.993595214372592 35.58484990791376 21.112150617748295
127 1 7.647000790751236 37.063700813177704 18.550935555973464
128 1 13.433920308076495 34.47571172896579 20.20654308686088
129 1 10.953811943508526 33.36657355001783 18.550935555973464
130 2 8.47370357894056 38.91226444475764 23.82897321041054
131 1 7.647000790751237 41.500253528969544 22.923365679523123
132 1 13.433920308076495 36.693988086861715 22.017758148635707
133 2 13.433920308076495 38.91226444475764 23.82897321041054
134 1 10.953811943508526 37.803126265809674 22.923365679523126
135 1 10.127109155319204 38.17283899212566 20.20654308686088
136 1 10.127109155319205 40.391115350021586 22.01775814863571
137 1 12.607217519887172 39.28197717107363 21.112150617748295
138 1 7.647000790751237 39.28197717107363 21.112150617748295
139 1 15.08732588445514 38.17283899212566 20.20654308686088
140 1 12.607217519887172 37.063700813177704 18.550935555973464
141 2 10.127109155319205 42.60939170791751 23.82897321041054
142 1 15.08732588445514 40.391115350021586 22.017758148635707
143 2 15.08732588445514 42.60939170791751 23.82897321041054
144 1 12.607217519887172 41.500253528969544 22.923365679523126
