#Lammps coordinate file for CSL - Axis: [1 1 1]  Angle: (1, 3) -> 59.99999999999999  Plane indices: [0 1 1]  z-position: [5.9336451853244885 17.800935555973464]  Repeats: 1 1 (3, 3) (black, white)  Fixed: 2.228  Boundary equiv: True
144 atoms

2 atom types

0.0 9.920433458271871 xlo xhi
0.0 11.091381789479609 ylo yhi
0.0 23.734580741297954 zlo zhi
4.9602167291359365 18.600812734259762 32.16500718949087 xy xz yz

Atoms

1 1 11.78051473169785 10.53681270000563 7.339252716211904
2 1 16.740731460833782 10.53681270000563 7.339252716211904
3 1 14.260623096265816 11.64595087895359 8.24486024709932
4 1 16.740731460833782 12.755089057901552 9.150467777986734
5 1 20.047542613591073 14.233939963165499 7.339252716211904
6 1 11.780514731697847 12.755089057901552 9.150467777986734
7 1 9.300406367129881 13.864227236849514 10.05607530887415
8 2 11.78051473169785 14.973365415797474 10.961682839761563
9 1 9.300406367129881 11.645950878953592 8.244860247099318
10 2 16.740731460833782 14.973365415797474 10.961682839761563
11 2 14.260623096265817 16.082503594745432 11.867290370648979
12 2 16.740731460833782 17.191641773693398 12.772897901536393
13 1 14.260623096265816 13.864227236849514 10.05607530887415
14 1 15.087325884455137 14.233939963165499 7.339252716211904
15 1 12.607217519887172 15.34307814211346 8.244860247099318
16 1 15.087325884455137 16.45221632106142 9.150467777986734
17 1 20.047542613591073 16.45221632106142 9.150467777986734
18 1 17.56743424902311 17.561354500009383 10.05607530887415
19 2 20.047542613591077 18.670492678957345 10.961682839761563
20 1 17.567434249023105 15.34307814211346 8.24486024709932
21 1 18.39413703721243 17.931067226325368 7.339252716211903
22 1 20.8742454017804 19.040205405273333 8.244860247099318
23 2 11.78051473169785 17.191641773693398 12.772897901536393
24 1 9.300406367129881 18.300779952641356 13.678505432423808
25 1 11.78051473169785 19.409918131589322 14.584112963311222
26 2 9.300406367129881 16.082503594745436 11.867290370648979
27 1 16.740731460833786 19.409918131589322 14.584112963311222
28 1 14.260623096265817 20.51905631053728 15.489720494198638
29 1 16.740731460833786 21.62819448948524 16.39532802508605
30 1 14.260623096265817 18.300779952641356 13.678505432423808
31 2 15.087325884455138 18.670492678957345 10.961682839761563
32 2 12.607217519887172 19.779630857905303 11.867290370648979
33 2 15.087325884455138 20.88876903685327 12.772897901536393
34 1 12.607217519887172 17.561354500009386 10.05607530887415
35 1 13.433920308076493 17.931067226325368 7.339252716211903
36 1 13.433920308076493 20.149343584221292 9.150467777986734
37 2 20.047542613591077 20.88876903685327 12.772897901536393
38 1 17.56743424902311 21.997907215801227 13.678505432423808
39 1 20.047542613591077 23.107045394749193 14.584112963311224
40 2 17.56743424902311 19.779630857905303 11.867290370648979
41 1 18.39413703721243 20.149343584221292 9.150467777986734
42 1 15.914028672644461 21.258481763169257 10.05607530887415
43 2 18.39413703721243 22.367619942117216 10.961682839761563
44 1 15.914028672644461 19.040205405273333 8.244860247099318
45 2 20.8742454017804 23.476758121065174 11.867290370648977
46 1 20.8742454017804 21.25848176316925 10.05607530887415
47 1 11.78051473169785 21.628194489485246 16.39532802508605
48 1 9.300406367129883 20.51905631053728 15.489720494198638
49 1 15.08732588445514 23.107045394749193 14.584112963311222
50 1 12.607217519887174 24.21618357369715 15.489720494198638
51 1 15.08732588445514 25.32532175264511 16.39532802508605
52 1 12.607217519887172 21.997907215801227 13.678505432423808
53 2 13.433920308076495 22.367619942117216 10.961682839761563
54 2 13.433920308076495 24.58589630001314 12.772897901536393
55 1 20.047542613591077 25.32532175264511 16.39532802508605
56 1 17.56743424902311 24.21618357369715 15.48972049419864
57 2 18.39413703721243 24.58589630001314 12.772897901536393
58 1 15.914028672644463 25.695034478961098 13.678505432423808
59 1 18.39413703721243 26.804172657909064 14.584112963311224
60 2 15.914028672644463 23.476758121065174 11.867290370648979
61 1 20.874245401780396 27.913310836857022 15.489720494198636
62 1 20.874245401780392 25.695034478961098 13.678505432423808
63 1 13.433920308076495 26.804172657909064 14.58411296331122
64 1 13.433920308076495 29.02244901580498 16.39532802508605
65 1 18.39413703721243 29.02244901580498 16.395328025086048
66 1 15.914028672644463 27.913310836857022 15.489720494198638
67 1 0.0 2.2182763578959226 1.8112150617748295
68 2 2.4801083645679682 1.109138178947961 0.9056075308874146
69 2 4.960216729135936 -4.440892098500626e-16 -2.220446049250313e-16
70 2 0.0 0.0 0.0
71 1 0.0 6.654829073687768 5.9336451853244885
72 1 2.4801083645679682 3.327414536843884 2.7168225926622442
73 1 2.4801083645679682 5.545690894739806 4.528037654437074
74 1 4.960216729135936 4.436552715791845 3.622430123549659
75 1 0.0 4.436552715791845 3.622430123549659
76 1 1.6534055763786455 5.915403621055794 1.811215061774829
77 2 7.440325093703903 1.109138178947961 0.9056075308874145
78 1 7.440325093703903 3.3274145368438837 2.7168225926622442
79 1 4.960216729135936 2.218276357895922 1.811215061774829
80 2 4.133513940946613 4.806265442107832 0.9056075308874143
81 2 6.61362230551458 3.6971272631598704 -5.551115123125783e-16
82 2 1.6534055763786455 3.697127263159871 -3.3306690738754696e-16
83 1 1.6534055763786455 10.351956336847639 5.9336451853244885
84 1 7.440325093703903 5.545690894739806 4.528037654437074
85 1 4.960216729135936 6.654829073687768 5.9336451853244885
86 1 4.133513940946613 7.024541800003755 2.716822592662244
87 1 4.133513940946613 9.242818157899677 4.528037654437074
88 1 6.61362230551458 8.133679978951715 3.6224301235496585
89 1 1.6534055763786455 8.133679978951717 3.6224301235496585
90 1 3.306811152757291 9.612530884215664 1.8112150617748286
91 2 9.093730670082548 4.806265442107832 0.9056075308874142
92 1 9.093730670082547 7.024541800003755 2.716822592662244
93 1 6.61362230551458 5.915403621055793 1.8112150617748286
94 2 5.7869195173252574 8.503392705267704 0.9056075308874139
95 2 8.267027881893226 7.394254526319742 -9.992007221626409e-16
96 2 3.306811152757291 7.394254526319742 -7.771561172376096e-16
97 1 3.306811152757291 14.04908360000751 5.933645185324488
98 1 9.093730670082547 9.242818157899677 4.528037654437074
99 1 6.613622305514581 10.351956336847639 5.9336451853244885
100 1 5.786919517325258 10.721669063163626 2.7168225926622434
101 1 5.786919517325258 12.939945421059548 4.528037654437073
102 1 8.267027881893226 11.830807242111586 3.622430123549658
103 1 3.306811152757291 11.830807242111588 3.622430123549658
104 2 10.747136246461192 8.503392705267704 0.9056075308874137
105 1 10.747136246461192 10.721669063163626 2.7168225926622434
106 1 8.267027881893226 9.612530884215664 1.8112150617748286
107 1 18.600812734259762 25.510178115803107 17.800935555973467
108 1 10.747136246461192 12.939945421059548 4.528037654437073
109 1 8.267027881893226 14.04908360000751 5.933645185324488
110 1 18.600812734259762 29.946730831594955 21.923365679523123
111 1 21.080921098827726 26.619316294751073 19.20654308686088
112 1 21.08092109882773 28.837592652646997 21.01775814863571
113 1 23.561029463395695 27.72845447369903 20.112150617748295
114 1 18.600812734259762 27.72845447369903 20.112150617748295
115 1 20.254218310638407 29.207305378962978 17.800935555973464
116 1 26.04113782796366 26.619316294751073 19.20654308686088
117 1 23.561029463395695 25.510178115803107 17.800935555973464
118 2 21.08092109882773 31.055869010542914 22.82897321041054
119 1 20.254218310638407 33.643858094754826 21.923365679523123
120 1 26.04113782796366 28.83759265264699 21.017758148635707
121 2 26.041137827963666 31.055869010542914 22.82897321041054
122 1 23.5610294633957 29.946730831594955 21.923365679523126
123 1 22.734326675206372 30.316443557910944 19.20654308686088
124 1 22.734326675206376 32.53471991580687 21.01775814863571
125 1 25.21443503977434 31.425581736858902 20.112150617748295
126 1 20.254218310638407 31.425581736858902 20.112150617748295
127 1 21.907623887017053 32.90443264212285 17.800935555973464
128 1 27.694543404342312 30.316443557910944 19.20654308686088
129 1 25.21443503977434 29.207305378962978 17.800935555973464
130 2 22.734326675206376 34.752996273702784 22.82897321041054
131 1 21.907623887017053 37.3409853579147 21.923365679523123
132 1 27.694543404342312 32.53471991580686 21.017758148635707
133 2 27.694543404342312 34.752996273702784 22.82897321041054
134 1 25.214435039774344 33.643858094754826 21.923365679523126
135 1 24.387732251585017 34.013570821070815 19.20654308686088
136 1 24.38773225158502 36.23184717896674 21.01775814863571
137 1 26.86784061615299 35.12270900001877 20.112150617748295
138 1 21.907623887017053 35.12270900001877 20.112150617748295
139 1 29.347948980720957 34.013570821070815 19.20654308686088
140 1 26.86784061615299 32.90443264212285 17.800935555973464
141 2 24.38773225158502 38.45012353686266 22.82897321041054
142 1 29.347948980720957 36.23184717896673 21.017758148635707
143 2 29.347948980720957 38.45012353686266 22.82897321041054
144 1 26.86784061615299 37.3409853579147 21.923365679523126
