LAMMPS (29 Aug 2024 - Update 2)
#---------------------------------------------------------------------------------------------------
# Initilise important features of simulation
#---------------------------------------------------------------------------------------------------
units 		metal	# Use metals units (Ang, ps, eV, bar, etc.)
dimension 	3		# Run the simulation in three dimensions
boundary 	p p p	# Use periodic boundaries in all three dimensions
atom_style 	atomic	#
#box tilt large		# Allow larger than normal tilt factors

variable T_start equal 600
variable T_end equal 200
variable tstep equal 0.002
timestep ${tstep}
timestep 0.002

read_data   lammps.txt	# Read in atom coordinates from a file
Reading data file ...
  triclinic box = (0 0 0) to (9.9204335 11.091382 21.734581) with tilt (4.9602167 11.780515 47.415657)
WARNING: Triclinic box skew is large. LAMMPS will run inefficiently. (src/domain.cpp:221)
  1 by 1 by 1 MPI processor grid
  reading atoms ...
  144 atoms
  read_data CPU = 0.001 seconds

#---------------------------------------------------------------------------------------------------
# Define how the forces between the atoms will be modelled
#---------------------------------------------------------------------------------------------------
pair_style eam/alloy
pair_coeff * * Zope-Ti-Al-2003.eam.alloy.txt Al Al

#---------------------------------------------------------------------------------------------------
# Set behaviour of simulation
#---------------------------------------------------------------------------------------------------
group g_fixed type 2
36 atoms in group g_fixed
group g_other type 1
108 atoms in group g_other
fix f_freeze g_fixed setforce 0.0 0.0 0.0 	# Hold atoms of type 2 fixed in place
#fix f_constrain g_other setforce 0.0 0.0 NULL 	# All atoms of type 1 to move only in z direction

#---------------------------------------------------------------------------------------------------
# Specify what information to write out
#---------------------------------------------------------------------------------------------------
thermo_style custom step atoms temp pe ke etotal fmax
thermo_modify format 6 %20.10f
thermo 1000

#compute statom all stress/atom NULL
compute peatom all pe/atom
dump 1 all custom 100000 dump.* id type x y z c_peatom
dump_modify 1 first yes


#---------------------------------------------------------------------------------------------------
# Initial relaxation
#---------------------------------------------------------------------------------------------------
velocity all set 0.0 0.0 0.0

min_style 	cg
min_modify dmax 0.1
minimize 	0.0 1.0e-6 10000 100000
Neighbor list info ...
  update: every = 1 steps, delay = 0 steps, check = yes
  max neighbors/atom: 2000, page size: 100000
  master list distance cutoff = 8.724884
  ghost atom cutoff = 8.724884
  binsize = 4.362442, bins = 7 14 5
  1 neighbor lists, perpetual/occasional/extra = 1 0 0
  (1) pair eam/alloy, perpetual
      attributes: half, newton on
      pair build: half/bin/atomonly/newton/tri
      stencil: half/bin/3d/tri
      bin: standard
Per MPI rank memory allocation (min/avg/max) = 4.732 | 4.732 | 4.732 Mbytes
   Step        Atoms         Temp          PotEng         KinEng         TotEng          Fmax     
         0         144   0             -438.3923       0                  -438.3923006779  12.484708    
        59         144   0             -475.67359      0                  -475.6735939065  1.5427728e-07
Loop time of 0.0110032 on 1 procs for 59 steps with 144 atoms

97.9% CPU use with 1 MPI tasks x no OpenMP threads

Minimization stats:
  Stopping criterion = force tolerance
  Energy initial, next-to-last, final = 
     -438.392300677865  -475.673593906511  -475.673593906511
  Force two-norm initial, final = 41.290362 9.7035066e-07
  Force max component initial, final = 12.484708 1.5427728e-07
  Final line search alpha, max atom move = 1 1.5427728e-07
  Iterations, force evaluations = 59 112

MPI task timing breakdown:
Section |  min time  |  avg time  |  max time  |%varavg| %total
---------------------------------------------------------------
Pair    | 0.0096864  | 0.0096864  | 0.0096864  |   0.0 | 88.03
Neigh   | 0          | 0          | 0          |   0.0 |  0.00
Comm    | 0.00070321 | 0.00070321 | 0.00070321 |   0.0 |  6.39
Output  | 0          | 0          | 0          |   0.0 |  0.00
Modify  | 1.7625e-05 | 1.7625e-05 | 1.7625e-05 |   0.0 |  0.16
Other   |            | 0.0005959  |            |       |  5.42

Nlocal:            144 ave         144 max         144 min
Histogram: 1 0 0 0 0 0 0 0 0 0
Nghost:           3650 ave        3650 max        3650 min
Histogram: 1 0 0 0 0 0 0 0 0 0
Neighs:          12528 ave       12528 max       12528 min
Histogram: 1 0 0 0 0 0 0 0 0 0

Total # of neighbors = 12528
Ave neighs/atom = 87
Neighbor list builds = 0
Dangerous builds = 0
#---------------------------------------------------------------------------------------------------
# Anneal boundary structures
#---------------------------------------------------------------------------------------------------
reset_timestep 100000
fix md g_other nvt temp ${T_start} ${T_end} $(100.0*v_tstep)
fix md g_other nvt temp 600 ${T_end} $(100.0*v_tstep)
fix md g_other nvt temp 600 200 $(100.0*v_tstep)
fix md g_other nvt temp 600 200 0.2000000000000000111

velocity all create ${T_start} 4928459 rot yes mom yes dist gaussian
velocity all create 600 4928459 rot yes mom yes dist gaussian
run 10000
Per MPI rank memory allocation (min/avg/max) = 4.989 | 4.989 | 4.989 Mbytes
   Step        Atoms         Temp          PotEng         KinEng         TotEng          Fmax     
    100000         144   600           -475.67359      11.09052           -464.5830734655  1.5427726e-07
    101000         144   606.60027     -468.4246       11.212521          -457.2120744460  1.5382438    
    102000         144   558.36293     -468.76454      10.320892          -458.4436444066  1.3688174    
    103000         144   606.21774     -469.4787       11.20545           -458.2732517400  1.4469951    
    104000         144   510.95232     -470.21528      9.4445453          -460.7707316927  1.1953725    
    105000         144   478.09837     -470.89812      8.8372662          -462.0608557284  1.1816666    
    106000         144   492.13634     -471.7275       9.0967469          -462.6307533480  0.99653893   
    107000         144   431.72395     -472.44184      7.9800722          -464.4617668811  1.1831641    
    108000         144   396.31657     -472.64967      7.3255949          -465.3240747196  0.89844718   
    109000         144   395.19063     -472.78765      7.3047828          -465.4828708379  1.0542935    
    110000         144   332.40185     -473.31192      6.1441825          -467.1677424482  0.86153972   
Loop time of 0.955053 on 1 procs for 10000 steps with 144 atoms

Performance: 1809.324 ns/day, 0.013 hours/ns, 10470.627 timesteps/s, 1.508 Matom-step/s
99.5% CPU use with 1 MPI tasks x no OpenMP threads

MPI task timing breakdown:
Section |  min time  |  avg time  |  max time  |%varavg| %total
---------------------------------------------------------------
Pair    | 0.84251    | 0.84251    | 0.84251    |   0.0 | 88.22
Neigh   | 0.023432   | 0.023432   | 0.023432   |   0.0 |  2.45
Comm    | 0.065195   | 0.065195   | 0.065195   |   0.0 |  6.83
Output  | 8.0207e-05 | 8.0207e-05 | 8.0207e-05 |   0.0 |  0.01
Modify  | 0.010877   | 0.010877   | 0.010877   |   0.0 |  1.14
Other   |            | 0.01295    |            |       |  1.36

Nlocal:            144 ave         144 max         144 min
Histogram: 1 0 0 0 0 0 0 0 0 0
Nghost:           3740 ave        3740 max        3740 min
Histogram: 1 0 0 0 0 0 0 0 0 0
Neighs:          12104 ave       12104 max       12104 min
Histogram: 1 0 0 0 0 0 0 0 0 0

Total # of neighbors = 12104
Ave neighs/atom = 84.055556
Neighbor list builds = 48
Dangerous builds = 0
unfix md

#---------------------------------------------------------------------------------------------------
# Final relaxation
#---------------------------------------------------------------------------------------------------
velocity all set 0.0 0.0 0.0

min_style 	cg
min_modify dmax 0.1
minimize 	0.0 1.0e-6 10000 100000
Per MPI rank memory allocation (min/avg/max) = 6.114 | 6.114 | 6.114 Mbytes
   Step        Atoms         Temp          PotEng         KinEng         TotEng          Fmax     
    110000         144   0             -473.31192      0                  -473.3119249969  0.86153972   
    110079         144   0             -476.51986      0                  -476.5198636238  1.6200767e-07
Loop time of 0.0167734 on 1 procs for 79 steps with 144 atoms

98.0% CPU use with 1 MPI tasks x no OpenMP threads

Minimization stats:
  Stopping criterion = force tolerance
  Energy initial, next-to-last, final = 
     -473.311924996948  -476.519863623801  -476.519863623801
  Force two-norm initial, final = 5.4845983 8.3360727e-07
  Force max component initial, final = 0.86153972 1.6200767e-07
  Final line search alpha, max atom move = 1 1.6200767e-07
  Iterations, force evaluations = 79 155

MPI task timing breakdown:
Section |  min time  |  avg time  |  max time  |%varavg| %total
---------------------------------------------------------------
Pair    | 0.014446   | 0.014446   | 0.014446   |   0.0 | 86.13
Neigh   | 0.00047833 | 0.00047833 | 0.00047833 |   0.0 |  2.85
Comm    | 0.0010186  | 0.0010186  | 0.0010186  |   0.0 |  6.07
Output  | 0          | 0          | 0          |   0.0 |  0.00
Modify  | 2.3746e-05 | 2.3746e-05 | 2.3746e-05 |   0.0 |  0.14
Other   |            | 0.0008063  |            |       |  4.81

Nlocal:            144 ave         144 max         144 min
Histogram: 1 0 0 0 0 0 0 0 0 0
Nghost:           3734 ave        3734 max        3734 min
Histogram: 1 0 0 0 0 0 0 0 0 0
Neighs:          12078 ave       12078 max       12078 min
Histogram: 1 0 0 0 0 0 0 0 0 0

Total # of neighbors = 12078
Ave neighs/atom = 83.875
Neighbor list builds = 1
Dangerous builds = 0

Total wall time: 0:00:00
