ITEM: TIMESTEP
110095
ITEM: NUMBER OF ATOMS
144
ITEM: BOX BOUNDS xy xz yz pp pp pp
0.0000000000000000e+00 3.2241408739383594e+01 4.9602167291359365e+00
0.0000000000000000e+00 5.1574925321080187e+01 1.7360758551975785e+01
0.0000000000000000e+00 1.9734580741297954e+01 4.0483543531600581e+01
ITEM: ATOMS id type x y z c_peatom
70 2 0 0 0 -3.30544
82 2 1.65341 3.69713 0 -3.29983
69 2 4.96022 0 0 -3.27388
81 2 6.61362 3.69713 0 -3.31362
80 2 4.13351 4.80627 0.905608 -3.29004
86 1 4.09769 7.00532 2.52092 -3.26567
88 1 6.44826 8.11094 3.47908 -3.31734
91 2 9.09373 4.80627 0.905608 -3.32097
92 1 9.0462 6.99672 2.60196 -3.31909
93 1 6.5778 5.92038 1.70814 -3.35013
94 2 5.78692 8.50339 0.905608 -3.28557
98 1 8.81303 9.07853 4.35454 -3.26807
76 1 11.5806 5.91194 1.65016 -3.30259
89 1 11.4721 8.04171 3.39984 -3.21576
96 2 13.2272 7.39425 0 -3.29983
104 2 10.7471 8.50339 0.905608 -3.29737
87 1 13.6497 9.1591 4.17199 -3.13308
106 1 8.27503 9.52907 1.67318 -3.30176
68 2 7.44033 12.2005 0.905608 -3.31948
100 1 5.85886 10.6215 2.45672 -3.21018
101 1 6.14693 12.771 4.05614 -3.24787
102 1 8.48133 11.6498 3.29508 -3.24105
77 2 12.4005 12.2005 0.905608 -3.2951
79 1 9.94473 13.2042 1.5946 -3.24142
90 1 13.2365 9.55709 1.60291 -3.27772
103 1 13.4549 11.6572 3.2737 -3.25274
105 1 10.8294 10.5882 2.46518 -3.22882
108 1 11.0874 12.7158 4.04212 -3.27551
97 1 13.6747 13.7529 4.87778 -3.30187
67 1 14.9586 13.2766 1.64727 -3.3058
72 1 7.54499 14.4133 2.53842 -3.29058
73 1 7.64162 16.6821 4.26308 -3.27375
74 1 10.1159 15.1818 3.15498 -3.06352
78 1 12.5596 14.2419 2.41708 -3.15033
84 1 12.7454 16.1794 3.93435 -3.07246
85 1 10.3387 17.0059 4.59118 -2.87782
75 1 15.1381 15.4527 3.33847 -3.2438
83 1 15.9446 21.3266 5.00796 -3.08865
109 1 8.69797 13.8471 4.90866 -3.26598
7 1 8.68011 18.0818 8.26311 -3.27734
9 1 8.78215 15.9943 6.55315 -3.26825
1 1 11.2485 14.7892 5.74194 -3.31153
6 1 11.1917 16.9564 7.38062 -3.28817
14 1 12.6522 18.0325 5.50424 -2.90655
13 1 13.6804 18.0524 8.11382 -3.33927
5 1 9.81662 18.7839 5.95531 -3.02855
3 1 13.7314 15.8282 6.5305 -3.26109
71 1 15.1335 17.647 5.10111 -3.1876
2 1 16.1903 14.8809 5.72677 -3.27926
4 1 16.2058 16.9628 7.36503 -3.19428
99 1 5.87579 10.2854 5.01178 -3.16593
35 1 13.1478 22.3776 5.84675 -3.22125
8 2 11.1605 19.1326 8.96168 -3.31301
15 1 12.1388 19.9457 6.71287 -2.97221
17 1 9.55701 20.7597 7.4032 -3.2117
34 1 12.0388 21.8539 8.28798 -3.22561
22 1 10.5332 23.4285 6.61848 -3.22946
10 2 16.1207 19.1326 8.96168 -3.27448
16 1 14.6231 20.5586 7.21037 -3.27596
18 1 16.951 21.6764 8.14413 -3.32774
20 1 17.0856 19.3502 6.30567 -3.31821
31 2 14.4673 22.8298 8.96168 -3.33725
21 1 18.1213 22.3535 5.84426 -3.17214
44 1 15.4772 23.3858 6.60775 -3.23397
19 2 19.4275 22.8298 8.96168 -3.28731
36 1 12.9096 24.4607 7.39356 -3.23058
53 2 12.8139 26.5269 8.96168 -3.28127
41 1 17.8582 24.4095 7.42145 -3.21419
42 1 15.3152 25.4823 8.24606 -3.27818
43 2 17.7741 26.5269 8.96168 -3.28225
46 1 20.2911 25.484 8.26251 -3.27815
26 2 8.68038 20.2418 9.86729 -3.29323
11 2 13.6406 20.2418 9.86729 -3.31795
32 2 11.9872 23.9389 9.86729 -3.28059
52 1 11.9503 26.0909 11.4721 -3.27815
33 2 14.4673 25.048 10.7729 -3.28225
38 1 16.9263 26.0927 11.4885 -3.27818
40 2 16.9474 23.9389 9.86729 -3.30211
49 1 14.3832 27.1654 12.3131 -3.21419
60 2 15.294 27.636 9.86729 -3.30211
37 2 19.4275 25.048 10.7729 -3.28127
39 1 19.3318 27.1142 12.341 -3.23058
45 2 20.2542 27.636 9.86729 -3.28059
54 2 12.8139 28.7452 10.7729 -3.28731
56 1 16.7642 28.1891 13.1268 -3.23397
51 1 14.1201 29.2214 13.8903 -3.17214
23 2 16.1207 32.4423 10.7729 -3.27448
57 2 17.7741 28.7452 10.7729 -3.33725
58 1 15.2904 29.8985 11.5904 -3.32774
59 1 17.6183 31.0163 12.5242 -3.27596
66 1 15.1558 32.2247 13.4289 -3.31821
50 1 21.7082 28.1464 13.1161 -3.22946
12 2 21.0809 32.4423 10.7729 -3.31301
61 1 20.1026 31.6292 13.0217 -2.97221
62 1 20.2026 29.7211 11.4466 -3.22561
63 1 22.6844 30.8153 12.3314 -3.2117
55 1 19.0936 29.1973 13.8878 -3.22125
64 1 22.4248 32.791 13.7793 -3.02855
140 1 21.4054 30.1981 14.7228 -3.16593
25 1 16.0356 34.6121 12.3696 -3.19428
47 1 16.0511 36.694 14.0078 -3.27926
107 1 17.1079 33.928 14.6335 -3.1876
28 1 18.51 35.7467 13.2041 -3.26109
30 1 18.561 33.5226 11.6208 -3.33927
65 1 19.5892 33.5424 14.2303 -2.90655
27 1 21.0497 34.6185 12.354 -3.28817
29 1 20.9929 36.7857 13.9926 -3.31153
24 1 23.5613 33.4931 11.4715 -3.27734
48 1 23.4593 35.5806 13.1814 -3.26825
127 1 16.2968 30.2483 14.7266 -3.08865
114 1 17.1033 36.1222 16.3961 -3.2438
116 1 24.5998 34.8929 15.4715 -3.27375
117 1 21.9027 34.569 15.1434 -2.87782
111 1 19.496 35.3955 15.8002 -3.07246
112 1 19.6819 37.3331 17.3175 -3.15033
113 1 22.1255 36.3932 16.5796 -3.06352
120 1 24.6964 37.1616 17.1962 -3.29058
110 1 17.2828 38.2983 18.0873 -3.3058
115 1 18.5667 37.822 14.8568 -3.30187
118 2 19.8409 39.3744 18.829 -3.2951
119 1 19.0049 42.0178 18.1317 -3.27772
122 1 22.2967 38.3707 18.14 -3.24142
123 1 21.154 38.8591 15.6925 -3.27551
124 1 21.412 40.9867 17.2694 -3.22882
126 1 18.7865 39.9177 16.4609 -3.25274
129 1 23.5434 37.7278 14.8259 -3.26598
121 2 24.8011 39.3744 18.829 -3.31948
125 1 23.7601 39.9252 16.4395 -3.24105
128 1 26.0945 38.8039 15.6784 -3.24787
132 1 26.3826 40.9534 17.2779 -3.21018
134 1 23.9664 42.0459 18.0614 -3.30176
139 1 18.5917 42.4158 15.5626 -3.13308
130 2 21.4943 43.0715 18.829 -3.29737
131 1 20.6608 45.663 18.0844 -3.30259
138 1 20.7693 43.5332 16.3347 -3.21576
135 1 23.4284 42.4964 15.38 -3.26807
136 1 23.1952 44.5782 17.1326 -3.31909
133 2 26.4545 43.0715 18.829 -3.28557
137 1 25.7931 43.464 16.2555 -3.31734
141 2 23.1477 46.7687 18.829 -3.32097
144 1 25.6636 45.6545 18.0264 -3.35013
142 1 28.1437 44.5696 17.2137 -3.26567
143 2 28.1079 46.7687 18.829 -3.29004
95 2 25.6278 47.8778 19.7346 -3.31362
