ITEM: TIMESTEP
0
ITEM: NUMBER OF ATOMS
144
ITEM: BOX BOUNDS xy xz yz pp pp pp
0.0000000000000000e+00 2.2320975281111718e+01 4.9602167291359365e+00
0.0000000000000000e+00 4.6029234426340381e+01 7.4403250937039100e+00
0.0000000000000000e+00 2.0734580741297954e+01 3.4937852636860775e+01
ITEM: ATOMS id type x y z c_peatom
70 2 0 0 0 -3.34282
69 2 4.96022 0 0 -3.34282
81 2 6.61362 3.69713 0 -3.34308
82 2 11.5738 3.69713 0 -3.34308
80 2 4.13351 4.80627 0.905608 -3.3607
86 1 4.13351 7.02454 2.71682 -3.37129
88 1 6.61362 8.13368 3.62243 -3.33802
93 1 6.61362 5.9154 1.81122 -3.34922
94 2 5.78692 8.50339 0.905608 -3.34776
95 2 8.26703 7.39425 0 -3.34308
76 1 11.5738 5.9154 1.81122 -3.34922
89 1 11.5738 8.13368 3.62243 -3.33802
91 2 9.09373 4.80627 0.905608 -3.3607
92 1 9.09373 7.02454 2.71682 -3.37129
96 2 13.2272 7.39425 0 -3.34308
104 2 10.7471 8.50339 0.905608 -3.34776
87 1 4.13351 9.24282 4.52804 -2.93004
68 2 7.44033 12.2005 0.905608 -3.35714
100 1 5.78692 10.7217 2.71682 -3.37137
101 1 5.78692 12.9399 4.52804 -2.44163
102 1 8.26703 11.8308 3.62243 -3.42001
106 1 8.26703 9.61253 1.81122 -3.34908
77 2 12.4005 12.2005 0.905608 -3.35714
79 1 9.92043 13.3097 1.81122 -3.36755
90 1 13.2272 9.61253 1.81122 -3.34908
98 1 9.09373 9.24282 4.52804 -2.93004
103 1 13.2272 11.8308 3.62243 -3.42001
105 1 10.7471 10.7217 2.71682 -3.37137
108 1 10.7471 12.9399 4.52804 -2.44163
67 1 14.8807 13.3097 1.81122 -3.36755
72 1 7.44033 14.4188 2.71682 -3.37083
73 1 7.44033 16.6371 4.52804 -3.17019
109 1 8.26703 14.0491 5.18365 -2.30376
74 1 9.92043 15.5279 3.62243 -3.14901
78 1 12.4005 14.4188 2.71682 -3.37083
84 1 12.4005 16.6371 4.52804 -3.17019
97 1 13.2272 14.0491 5.18365 -2.30376
75 1 14.8807 15.5279 3.62243 -3.14901
9 1 3.72016 13.0324 6.74486 -2.78437
1 1 6.20027 11.9232 5.83925 -1.51208
3 1 8.68038 13.0324 6.74486 -2.78437
99 1 6.61362 10.352 5.18365 -2.06846
2 1 11.1605 11.9232 5.83925 -1.51208
83 1 11.5738 10.352 5.18365 -2.06846
7 1 3.72016 15.2506 8.55608 -3.38
6 1 6.20027 14.1415 7.65047 -3.4263
8 2 6.20027 16.3598 9.46168 -3.3384
13 1 8.68038 15.2506 8.55608 -3.38
15 1 7.02697 16.7295 6.74486 -3.17
4 1 11.1605 14.1415 7.65047 -3.4263
10 2 11.1605 16.3598 9.46168 -3.3384
14 1 9.50708 15.6204 5.83925 -2.54829
16 1 9.50708 17.8386 7.65047 -3.32269
20 1 11.9872 16.7295 6.74486 -3.17
85 1 9.92043 17.7462 5.18365 -2.98829
5 1 14.4673 15.6204 5.83925 -2.54829
17 1 14.4673 17.8386 7.65047 -3.32269
71 1 14.8807 17.7462 5.18365 -2.98829
34 1 7.02697 18.9478 8.55608 -3.38861
35 1 7.85368 19.3175 5.83925 -2.85796
36 1 7.85368 21.5358 7.65047 -3.40049
18 1 11.9872 18.9478 8.55608 -3.38861
21 1 12.8139 19.3175 5.83925 -2.85796
31 2 9.50708 20.0569 9.46168 -3.34088
41 1 12.8139 21.5358 7.65047 -3.40049
42 1 10.3338 22.6449 8.55608 -3.36458
44 1 10.3338 20.4266 6.74486 -3.10716
19 2 14.4673 20.0569 9.46168 -3.34088
22 1 15.294 20.4266 6.74486 -3.10716
46 1 15.294 22.6449 8.55608 -3.36458
53 2 7.85368 23.754 9.46168 -3.35007
43 2 12.8139 23.754 9.46168 -3.35007
32 2 7.02697 21.1661 10.3673 -3.34195
33 2 9.50708 22.2752 11.2729 -3.35007
40 2 11.9872 21.1661 10.3673 -3.34195
37 2 14.4673 22.2752 11.2729 -3.35007
50 1 7.02697 25.6026 13.9897 -3.10716
52 1 7.02697 23.3843 12.1785 -3.36458
54 2 7.85368 25.9723 11.2729 -3.34088
38 1 11.9872 23.3843 12.1785 -3.36458
49 1 9.50708 24.4935 13.0841 -3.40049
51 1 9.50708 26.7117 14.8953 -2.85796
56 1 11.9872 25.6026 13.9897 -3.10716
57 2 12.8139 25.9723 11.2729 -3.34088
58 1 10.3338 27.0815 12.1785 -3.38861
60 2 10.3338 24.8632 10.3673 -3.34195
39 1 14.4673 24.4935 13.0841 -3.40049
45 2 15.294 24.8632 10.3673 -3.34195
55 1 14.4673 26.7117 14.8953 -2.85796
62 1 15.294 27.0815 12.1785 -3.38861
26 2 8.68038 28.5603 10.3673 -3.34053
63 1 7.85368 28.1906 13.0841 -3.32269
64 1 7.85368 30.4089 14.8953 -2.54829
23 2 11.1605 29.6694 11.2729 -3.3384
25 1 11.1605 31.8877 13.0841 -3.4263
59 1 12.8139 28.1906 13.0841 -3.32269
65 1 12.8139 30.4089 14.8953 -2.54829
66 1 10.3338 29.2997 13.9897 -3.17
11 2 13.6406 28.5603 10.3673 -3.34053
12 2 16.1207 29.6694 11.2729 -3.3384
27 1 16.1207 31.8877 13.0841 -3.4263
30 1 13.6406 30.7786 12.1785 -3.38
61 1 15.294 29.2997 13.9897 -3.17
24 1 18.6008 30.7786 12.1785 -3.38
47 1 11.1605 34.106 14.8953 -1.51208
28 1 13.6406 32.9969 13.9897 -2.78437
29 1 16.1207 34.106 14.8953 -1.51208
48 1 18.6008 32.9969 13.9897 -2.78437
107 1 7.44033 28.283 15.5509 -2.98829
114 1 7.44033 30.5013 17.1122 -3.14901
111 1 9.92043 29.3922 16.2065 -3.17019
112 1 9.92043 31.6104 18.0178 -3.37083
113 1 12.4005 30.5013 17.1122 -3.14901
115 1 9.09373 31.9802 15.5509 -2.30376
117 1 12.4005 28.283 15.5509 -2.98829
116 1 14.8807 29.3922 16.2065 -3.17019
120 1 14.8807 31.6104 18.0178 -3.37083
129 1 14.0539 31.9802 15.5509 -2.30376
110 1 7.44033 32.7196 18.9234 -3.36755
118 2 9.92043 33.8287 19.829 -3.35714
119 1 9.09373 36.4167 18.9234 -3.34908
122 1 12.4005 32.7196 18.9234 -3.36755
123 1 11.5738 33.0893 16.2065 -2.44163
124 1 11.5738 35.3076 18.0178 -3.37137
126 1 9.09373 34.1984 17.1122 -3.42001
127 1 10.7471 35.6773 15.5509 -2.06846
135 1 13.2272 36.7864 16.2065 -2.93004
121 2 14.8807 33.8287 19.829 -3.35714
125 1 14.0539 34.1984 17.1122 -3.42001
128 1 16.5341 33.0893 16.2065 -2.44163
132 1 16.5341 35.3076 18.0178 -3.37137
134 1 14.0539 36.4167 18.9234 -3.34908
140 1 15.7074 35.6773 15.5509 -2.06846
139 1 18.1875 36.7864 16.2065 -2.93004
130 2 11.5738 37.5258 19.829 -3.34776
131 1 10.7471 40.1138 18.9234 -3.34922
136 1 13.2272 39.0047 18.0178 -3.37129
138 1 10.7471 37.8956 17.1122 -3.33802
141 2 13.2272 41.223 19.829 -3.3607
133 2 16.5341 37.5258 19.829 -3.34776
137 1 15.7074 37.8956 17.1122 -3.33802
144 1 15.7074 40.1138 18.9234 -3.34922
142 1 18.1875 39.0047 18.0178 -3.37129
143 2 18.1875 41.223 19.829 -3.3607
