ITEM: TIMESTEP
110073
ITEM: NUMBER OF ATOMS
144
ITEM: BOX BOUNDS xy xz yz pp pp pp
0.0000000000000000e+00 3.4101490012809563e+01 4.9602167291359365e+00
0.0000000000000000e+00 4.1869966255285533e+01 1.9220839825401757e+01
0.0000000000000000e+00 1.9734580741297954e+01 3.0778584465805920e+01
ITEM: ATOMS id type x y z c_peatom
70 2 0 0 0 -3.32483
82 2 1.65341 3.69713 0 -3.30729
69 2 4.96022 0 0 -3.30207
81 2 6.61362 3.69713 0 -3.2594
80 2 4.13351 4.80627 0.905608 -3.29205
86 1 4.25895 6.78596 2.53258 -3.13296
88 1 6.44916 7.83515 3.4586 -3.16834
91 2 9.09373 4.80627 0.905608 -3.25142
92 1 8.89736 6.76822 2.45031 -3.10464
93 1 6.5834 5.76514 1.69031 -3.2429
94 2 5.78692 8.50339 0.905608 -3.27583
95 2 8.26703 7.39425 0 -3.38218
2 1 8.52007 8.00045 4.68367 -3.03915
76 1 11.5647 5.9513 1.85404 -3.43111
89 1 10.798 8.4193 3.31693 -3.01123
96 2 13.2272 7.39425 0 -3.274
104 2 10.7471 8.50339 0.905608 -3.23521
1 1 12.7849 7.61906 4.36703 -3.00316
87 1 14.6121 9.29566 4.54913 -3.10649
106 1 8.36463 9.40712 1.91511 -3.38207
98 1 9.5394 10.2765 4.56622 -2.94395
68 2 7.44033 12.2005 0.905608 -3.19472
100 1 5.91159 10.5077 2.49264 -3.20923
102 1 8.31477 11.7155 3.07393 -2.97615
109 1 8.40784 13.1891 5.04536 -3.20324
90 1 13.219 9.33272 1.94274 -3.33324
77 2 12.4005 12.2005 0.905608 -3.28219
79 1 9.96842 13.2926 1.57174 -3.28329
103 1 13.4449 11.5761 3.2169 -3.16666
105 1 10.8914 10.7488 2.35919 -3.09477
108 1 10.9032 12.5589 4.06926 -3.20391
67 1 14.9117 13.1947 1.60953 -3.26864
101 1 15.8363 12.4483 4.17705 -3.22699
72 1 7.47836 14.2171 2.49481 -3.21342
74 1 10.0567 15.1669 3.4198 -3.25459
78 1 12.4518 14.3057 2.56163 -3.29034
84 1 12.4384 16.3861 4.46801 -3.43864
73 1 17.6321 15.95 4.15795 -3.14213
75 1 14.8931 15.0754 3.32387 -3.14842
71 1 15.3787 17.1653 4.41849 -3.02895
99 1 7.06649 10.2086 5.33642 -3.32842
7 1 9.64109 13.275 8.23502 -3.24951
97 1 13.365 13.3346 4.99437 -3.14727
9 1 9.84558 11.3167 6.65189 -3.11957
6 1 12.2231 12.2302 7.28529 -3.3097
83 1 12.199 10.3898 5.21599 -3.3138
13 1 14.6309 13.1983 8.16083 -3.31411
3 1 14.5937 11.2038 6.37059 -3.24374
4 1 17.0695 12.2043 7.21275 -3.3351
85 1 9.76832 17.1688 5.23641 -3.23071
5 1 10.8208 14.1987 5.88299 -3.11976
8 2 12.0905 14.2802 8.96168 -3.32424
15 1 13.2018 15.005 6.76501 -3.10316
17 1 10.6883 16.0392 7.46542 -3.06241
34 1 12.9215 16.9953 8.46119 -3.04027
35 1 14.1225 17.4271 6.47844 -2.9647
14 1 15.8247 14.4615 5.74652 -3.20022
10 2 17.0507 14.2802 8.96168 -3.2492
16 1 15.584 15.7927 7.72625 -2.8148
18 1 18.0604 16.9636 8.47856 -3.02151
20 1 18.2585 15.0361 6.73308 -3.16058
21 1 17.0203 17.2689 6.35448 -3.00012
31 2 15.3973 17.9773 8.96168 -3.33535
19 2 20.3576 17.9773 8.96168 -3.163
22 1 11.4482 18.5881 6.38846 -3.29125
36 1 13.6248 19.8327 7.31632 -3.17497
53 2 13.7439 21.6744 8.96168 -3.27609
44 1 15.8133 19.4775 6.05306 -3.13787
41 1 18.6311 19.476 7.04436 -3.43929
42 1 16.3062 20.6586 8.22722 -3.23703
43 2 18.7042 21.6744 8.96168 -3.31645
46 1 21.0957 20.6522 8.11221 -3.31405
11 2 14.5706 15.3893 9.86729 -3.22801
26 2 19.5309 15.3893 9.86729 -3.26633
32 2 12.9172 19.0864 9.86729 -3.21217
52 1 12.9877 21.3396 11.5174 -3.29451
33 2 15.3973 20.1956 10.7729 -3.26713
38 1 17.8762 21.2851 11.49 -3.28363
40 2 17.8774 19.0864 9.86729 -3.23852
49 1 15.4747 22.2746 12.4263 -3.25326
60 2 16.224 22.7835 9.86729 -3.30447
56 1 18.0734 23.1873 13.3293 -3.25903
37 2 20.3576 20.1956 10.7729 -3.29753
39 1 20.4503 22.2766 12.3966 -3.23059
45 2 21.1843 22.7835 9.86729 -3.3153
50 1 22.998 23.2719 13.3309 -3.27725
54 2 13.7439 23.8927 10.7729 -3.24859
23 2 17.0507 27.5898 10.7729 -3.34507
51 1 15.6844 24.0776 14.1627 -3.14069
57 2 18.7042 23.8927 10.7729 -3.28348
58 1 16.2132 24.8468 11.5322 -3.24556
59 1 18.617 25.8207 12.2827 -3.05906
66 1 16.012 26.6874 13.3895 -3.38262
12 2 22.011 27.5898 10.7729 -3.36218
55 1 20.5707 24.1171 14.1356 -3.14765
61 1 20.9898 26.6684 13.1934 -3.154
62 1 21.1838 24.8205 11.4952 -3.25514
63 1 23.6136 25.8456 12.2823 -3.07981
117 1 23.4059 25.3805 14.8281 -3.21959
65 1 18.4729 27.9899 13.4313 -2.99015
25 1 17.2753 30.0303 12.2693 -3.06956
64 1 23.2818 27.9398 13.5599 -3.05594
28 1 19.6834 30.8933 13.268 -3.25681
30 1 19.6602 28.6964 11.4647 -3.2088
27 1 22.034 29.8747 12.4433 -3.30083
29 1 22.0566 31.9945 14.2939 -3.28398
115 1 20.7566 28.6666 14.6342 -3.15857
48 1 24.3845 31.0431 13.2091 -3.15003
24 1 24.5893 28.7032 11.5189 -3.33285
127 1 25.798 29.23 13.9778 -2.95574
47 1 26.9776 31.9569 14.2163 -3.32787
107 1 18.3129 25.3169 14.8121 -3.21148
116 1 16.0582 25.6115 16.0982 -3.15171
128 1 17.3605 27.8196 15.5008 -2.83392
114 1 18.8322 26.5684 16.8969 -2.85285
111 1 21.0614 25.8533 15.8566 -3.09542
129 1 24.6477 27.8222 15.6775 -2.93918
140 1 18.4127 29.9963 15.2073 -3.04983
110 1 19.031 28.8787 17.8537 -3.25743
112 1 21.411 27.9522 17.1412 -3.05189
118 2 21.7009 29.6694 18.829 -3.21248
119 1 20.8325 32.4199 18.0597 -3.28025
123 1 23.1778 29.816 15.321 -3.16269
124 1 23.2604 31.4322 17.1968 -3.15959
126 1 20.7714 30.565 16.3394 -3.18324
122 1 24.0014 28.8209 18.0478 -3.25647
121 2 26.6612 29.6694 18.829 -3.19552
125 1 25.7706 30.277 16.3545 -3.37964
132 1 28.1743 31.4856 17.1795 -3.15483
134 1 25.7862 32.4165 17.9989 -3.29791
130 2 23.3544 33.3666 18.829 -3.25238
131 1 22.4242 35.8627 18.1371 -3.24037
138 1 22.2459 33.9957 16.1359 -3.37144
139 1 19.6217 32.8086 15.2078 -3.33126
133 2 28.3146 33.3666 18.829 -3.21775
135 1 24.6393 32.7646 15.279 -3.32109
136 1 24.7584 34.9028 17.011 -3.37335
137 1 27.1839 34.0299 16.0512 -3.34857
141 2 25.0078 37.0637 18.829 -3.26163
144 1 27.2602 35.735 18.1365 -3.07092
142 1 29.6645 34.8139 17.064 -3.29255
143 2 29.968 37.0637 18.829 -3.17073
113 1 28.3934 37.5087 17.101 -2.77123
120 1 31.2582 38.7213 17.6764 -2.82977
