ITEM: TIMESTEP
100000
ITEM: NUMBER OF ATOMS
144
ITEM: BOX BOUNDS xy xz yz pp pp pp
0.0000000000000000e+00 2.1700948189969726e+01 4.9602167291359365e+00
0.0000000000000000e+00 5.2961348044765145e+01 6.8202980025619180e+00
0.0000000000000000e+00 2.0734580741297954e+01 4.1869966255285533e+01
ITEM: ATOMS id type x y z c_peatom
69 2 4.96022 4.48381e-16 0 -3.31661
70 2 0 0 0 -3.31661
81 2 6.61362 3.69713 0 -3.33652
82 2 11.5738 3.69713 0 -3.33652
80 2 4.13351 4.80627 0.905608 -3.33177
86 1 3.91431 7.09881 2.58473 -3.28816
88 1 6.1389 8.18925 3.65814 -3.20371
91 2 9.09373 4.80627 0.905608 -3.33177
92 1 8.87453 7.09881 2.58473 -3.28816
93 1 6.51165 5.96251 1.72989 -3.34453
94 2 5.78692 8.50339 0.905608 -3.36419
95 2 8.26703 7.39425 0 -3.33652
104 2 10.7471 8.50339 0.905608 -3.36419
76 1 11.4719 5.96251 1.72989 -3.34453
89 1 11.0991 8.18925 3.65814 -3.20371
96 2 13.2272 7.39425 0 -3.33652
87 1 3.27897 9.39101 4.32412 -3.13064
103 1 3.4329 11.9227 3.46749 -3.33233
68 2 7.44033 12.2005 0.905608 -3.33583
98 1 8.23919 9.39101 4.32412 -3.13064
100 1 5.83611 10.7207 2.62347 -3.33906
101 1 5.94542 13.0106 4.29417 -3.33485
102 1 8.39311 11.9227 3.46749 -3.33233
105 1 10.7963 10.7207 2.62347 -3.33906
106 1 8.26089 9.64564 1.69863 -3.29807
90 1 13.2211 9.64564 1.69863 -3.29807
108 1 10.9056 13.0106 4.29417 -3.33485
77 2 12.4005 12.2005 0.905608 -3.33583
67 1 4.98505 13.2801 1.66568 -3.30119
75 1 5.00556 15.4108 3.33449 -3.23
71 1 5.00044 17.357 4.9547 -2.91414
72 1 7.47494 14.4426 2.55427 -3.3248
73 1 7.45397 16.6544 4.26286 -3.2576
74 1 9.96577 15.4108 3.33449 -3.23
79 1 9.94527 13.2801 1.66568 -3.30119
85 1 9.96066 17.357 4.9547 -2.91414
78 1 12.4352 14.4426 2.55427 -3.3248
84 1 12.4142 16.6544 4.26286 -3.2576
97 1 3.46593 14.1896 5.18711 -3.36878
109 1 8.42615 14.1896 5.18711 -3.36878
1 1 5.94582 15.1938 6.06358 -3.29786
3 1 8.37032 16.4969 6.89207 -3.31953
6 1 5.92556 17.5487 7.70376 -3.33845
2 1 10.906 15.1938 6.06358 -3.29786
4 1 10.8858 17.5487 7.70376 -3.33845
9 1 13.3305 16.4969 6.89207 -3.31953
7 1 3.41077 18.6918 8.70872 -3.30013
8 2 5.89026 19.8258 9.46168 -3.36889
10 2 10.8505 19.8258 9.46168 -3.36889
13 1 8.37099 18.6918 8.70872 -3.30013
14 1 9.37022 19.2665 6.30733 -3.00212
15 1 6.89436 20.1181 6.86299 -3.29611
16 1 9.29069 21.3504 7.84349 -3.27663
99 1 10.404 21.6489 5.25068 -3.25256
5 1 14.3304 19.2665 6.30733 -3.00212
17 1 14.2509 21.3504 7.84349 -3.27663
20 1 11.8546 20.1181 6.86299 -3.29611
83 1 15.3642 21.6489 5.25068 -3.25256
31 2 9.19707 23.523 9.46168 -3.30647
34 1 6.76663 22.381 8.63971 -3.35834
35 1 7.76674 22.7276 6.08195 -3.32154
36 1 7.61107 24.9722 7.78638 -3.3176
42 1 10.032 26.1016 8.64996 -3.34773
44 1 10.1449 23.8488 6.93203 -3.3021
18 1 11.7269 22.381 8.63971 -3.35834
19 2 14.1573 23.523 9.46168 -3.30647
21 1 12.727 22.7276 6.08195 -3.32154
22 1 15.1051 23.8488 6.93203 -3.3021
41 1 12.5713 24.9722 7.78638 -3.3176
46 1 14.9922 26.1016 8.64996 -3.34773
53 2 7.54366 27.2201 9.46168 -3.31894
43 2 12.5039 27.2201 9.46168 -3.31894
11 2 8.37037 20.935 10.3673 -3.32934
26 2 13.3306 20.935 10.3673 -3.32934
32 2 6.71696 24.6321 10.3673 -3.35659
33 2 9.19707 25.7412 11.2729 -3.31894
37 2 14.1573 25.7412 11.2729 -3.31894
40 2 11.6772 24.6321 10.3673 -3.35659
49 1 9.12966 27.9891 12.9482 -3.3176
50 1 6.59586 29.1125 13.8025 -3.3021
51 1 8.97399 30.2337 14.6526 -3.32154
52 1 6.70873 26.8598 12.0846 -3.34773
54 2 7.54366 29.4384 11.2729 -3.30647
58 1 9.9741 30.5803 12.0949 -3.35834
60 2 10.0238 28.3292 10.3673 -3.35659
38 1 11.6689 26.8598 12.0846 -3.34773
39 1 14.0899 27.9891 12.9482 -3.3176
45 2 14.984 28.3292 10.3673 -3.35659
55 1 13.9342 30.2337 14.6526 -3.32154
56 1 11.5561 29.1125 13.8025 -3.3021
57 2 12.5039 29.4384 11.2729 -3.30647
62 1 14.9343 30.5803 12.0949 -3.35834
63 1 7.45004 31.6109 12.8911 -3.27663
64 1 7.37051 33.6948 14.4273 -3.00212
66 1 9.84638 32.8432 13.8716 -3.29611
127 1 6.3367 31.3125 15.4839 -3.25256
12 2 15.8107 33.1355 11.2729 -3.36889
23 2 10.8505 33.1355 11.2729 -3.36889
30 1 13.33 34.2696 12.0259 -3.30013
59 1 12.4103 31.6109 12.8911 -3.27663
61 1 14.8066 32.8432 13.8716 -3.29611
65 1 12.3307 33.6948 14.4273 -3.00212
140 1 11.2969 31.3125 15.4839 -3.25256
24 1 18.2902 34.2696 12.0259 -3.30013
48 1 8.37041 36.4644 13.8425 -3.31953
25 1 10.8152 35.4127 13.0308 -3.33845
47 1 10.7949 37.7675 14.671 -3.29786
27 1 15.7754 35.4127 13.0308 -3.33845
28 1 13.3306 36.4644 13.8425 -3.31953
29 1 15.7551 37.7675 14.671 -3.29786
129 1 13.2748 38.7717 15.5475 -3.36878
115 1 18.235 38.7717 15.5475 -3.36878
111 1 9.28676 36.3069 16.4717 -3.2576
112 1 9.26579 38.5188 18.1803 -3.3248
117 1 11.7403 35.6044 15.7799 -2.91414
113 1 11.7352 37.5505 17.4001 -3.23
116 1 14.247 36.3069 16.4717 -3.2576
120 1 14.226 38.5188 18.1803 -3.3248
122 1 11.7557 39.6812 19.0689 -3.30119
107 1 16.7005 35.6044 15.7799 -2.91414
110 1 16.7159 39.6812 19.0689 -3.30119
114 1 16.6954 37.5505 17.4001 -3.23
118 2 9.30041 40.7608 19.829 -3.33583
123 1 10.7953 39.9508 16.4404 -3.33485
119 1 8.47985 43.3157 19.036 -3.29807
121 2 14.2606 40.7608 19.829 -3.33583
124 1 10.9046 42.2407 18.1111 -3.33906
125 1 13.3078 41.0387 17.2671 -3.33233
128 1 15.7555 39.9508 16.4404 -3.33485
132 1 15.8648 42.2407 18.1111 -3.33906
134 1 13.4401 43.3157 19.036 -3.29807
135 1 13.4618 43.5703 16.4105 -3.13064
126 1 18.2681 41.0387 17.2671 -3.33233
139 1 18.422 43.5703 16.4105 -3.13064
131 1 10.2291 46.9988 19.0047 -3.34453
138 1 10.6018 44.7721 17.0764 -3.20371
130 2 10.9538 44.458 19.829 -3.36419
133 2 15.914 44.458 19.829 -3.36419
136 1 12.8264 45.8625 18.1499 -3.28816
137 1 15.562 44.7721 17.0764 -3.20371
141 2 12.6072 48.1551 19.829 -3.33177
144 1 15.1893 46.9988 19.0047 -3.34453
142 1 17.7866 45.8625 18.1499 -3.28816
143 2 17.5674 48.1551 19.829 -3.33177
