#Lammps coordinate file for CSL - Axis: [1 1 1]  Angle: (1, 3) -> 59.99999999999999  Plane indices: [0 1 1]  z-position: [6.1836451853244885 18.550935555973464]  Repeats: 1 1 (3, 3) (black, white)  Fixed: 2.228  Boundary equiv: True
144 atoms

2 atom types

0.0 9.920433458271871 xlo xhi
0.0 11.091381789479609 ylo yhi
0.0 24.734580741297954 zlo zhi
4.9602167291359365 19.840866916543753 40.48354353160058 xy xz yz

Atoms

1 1 12.400541822839841 14.696080871060484 7.839252716211904
2 1 17.360758551975774 14.696080871060483 7.839252716211904
3 1 14.88065018740781 15.805219050008443 8.74486024709932
4 1 17.360758551975778 16.914357228956405 9.650467777986734
5 1 20.66756970473307 18.39320813422035 7.839252716211904
6 1 12.400541822839841 16.914357228956405 9.650467777986734
7 1 9.920433458271875 18.023495407904367 10.55607530887415
8 2 12.400541822839841 19.13263358685233 11.461682839761563
9 1 9.920433458271875 15.805219050008446 8.744860247099318
10 2 17.360758551975778 19.13263358685233 11.461682839761563
11 2 14.88065018740781 20.241771765800287 12.367290370648979
12 2 17.360758551975778 21.35090994474825 13.272897901536393
13 1 14.88065018740781 18.023495407904367 10.55607530887415
14 1 15.70735297559713 18.39320813422035 7.839252716211904
15 1 13.227244611029164 19.502346313168314 8.744860247099318
16 1 15.707352975597132 20.611484492116276 9.650467777986734
17 1 20.66756970473307 20.611484492116276 9.650467777986734
18 1 18.1874613401651 21.720622671064238 10.55607530887415
19 2 20.66756970473307 22.829760850012196 11.461682839761563
20 1 18.1874613401651 19.502346313168314 8.74486024709932
21 1 19.014164128354423 22.090335397380223 7.839252716211902
22 1 21.49427249292239 23.199473576328185 8.744860247099318
23 2 12.400541822839843 21.35090994474825 13.272897901536393
24 1 9.920433458271877 22.46004812369621 14.178505432423808
25 1 12.400541822839843 23.569186302644173 15.084112963311222
26 2 9.920433458271877 20.24177176580029 12.367290370648979
27 1 17.360758551975778 23.569186302644173 15.084112963311222
28 1 14.880650187407811 24.67832448159213 15.989720494198638
29 1 17.360758551975778 25.787462660540093 16.89532802508605
30 1 14.880650187407811 22.46004812369621 14.178505432423808
31 2 15.707352975597132 22.8297608500122 11.461682839761563
32 2 13.227244611029166 23.938899028960158 12.367290370648979
33 2 15.707352975597132 25.04803720790812 13.272897901536393
34 1 13.227244611029166 21.720622671064238 10.55607530887415
35 1 14.053947399218487 22.090335397380223 7.839252716211902
36 1 14.053947399218487 24.308611755276146 9.650467777986734
37 2 20.66756970473307 25.04803720790812 13.272897901536393
38 1 18.1874613401651 26.157175386856082 14.178505432423808
39 1 20.66756970473307 27.266313565804044 15.084112963311224
40 2 18.1874613401651 23.938899028960158 12.367290370648979
41 1 19.014164128354423 24.308611755276143 9.650467777986734
42 1 16.534055763786455 25.41774993422411 10.55607530887415
43 2 19.014164128354423 26.526888113172067 11.461682839761563
44 1 16.534055763786455 23.199473576328185 8.744860247099318
45 2 21.49427249292239 27.63602629212003 12.367290370648977
46 1 21.49427249292239 25.417749934224105 10.55607530887415
47 1 12.400541822839845 25.787462660540097 16.89532802508605
48 1 9.920433458271877 24.678324481592135 15.989720494198638
49 1 15.707352975597132 27.266313565804044 15.084112963311222
50 1 13.227244611029167 28.375451744752002 15.989720494198638
51 1 15.707352975597134 29.484589923699964 16.89532802508605
52 1 13.227244611029167 26.157175386856082 14.178505432423808
53 2 14.053947399218487 26.526888113172067 11.461682839761563
54 2 14.053947399218488 28.74516447106799 13.272897901536393
55 1 20.66756970473307 29.484589923699964 16.89532802508605
56 1 18.1874613401651 28.375451744752002 15.98972049419864
57 2 19.014164128354423 28.74516447106799 13.272897901536393
58 1 16.534055763786455 29.854302650015953 14.178505432423808
59 1 19.014164128354423 30.963440828963915 15.084112963311224
60 2 16.534055763786455 27.63602629212003 12.367290370648979
61 1 21.49427249292239 32.07257900791188 15.989720494198636
62 1 21.494272492922388 29.85430265001595 14.178505432423808
63 1 14.053947399218488 30.963440828963915 15.08411296331122
64 1 14.053947399218488 33.181717186859835 16.89532802508605
65 1 19.014164128354423 33.181717186859835 16.895328025086048
66 1 16.534055763786455 32.07257900791188 15.989720494198638
67 1 0.0 2.218276357895923 1.8112150617748295
68 2 2.4801083645679682 1.109138178947961 0.9056075308874145
69 2 4.960216729135936 -8.881784197001252e-16 -2.220446049250313e-16
70 2 0.0 0.0 0.0
71 1 0.0 6.654829073687768 6.1836451853244885
72 1 2.4801083645679682 3.327414536843884 2.7168225926622442
73 1 2.4801083645679682 5.545690894739806 4.528037654437073
74 1 4.960216729135936 4.436552715791845 3.622430123549659
75 1 0.0 4.436552715791845 3.622430123549659
76 1 1.6534055763786455 5.915403621055794 1.811215061774829
77 2 7.440325093703903 1.109138178947961 0.9056075308874144
78 1 7.440325093703903 3.3274145368438837 2.7168225926622442
79 1 4.960216729135936 2.218276357895922 1.8112150617748293
80 2 4.133513940946613 4.806265442107832 0.9056075308874142
81 2 6.61362230551458 3.6971272631598704 -6.661338147750939e-16
82 2 1.6534055763786455 3.697127263159871 -4.440892098500626e-16
83 1 1.6534055763786455 10.351956336847639 6.1836451853244885
84 1 7.440325093703903 5.545690894739806 4.528037654437073
85 1 4.960216729135936 6.654829073687768 6.1836451853244885
86 1 4.133513940946613 7.024541800003755 2.716822592662244
87 1 4.133513940946613 9.242818157899677 4.528037654437073
88 1 6.61362230551458 8.133679978951715 3.6224301235496585
89 1 1.6534055763786455 8.133679978951717 3.6224301235496585
90 1 3.306811152757291 9.612530884215664 1.8112150617748288
91 2 9.093730670082548 4.806265442107832 0.9056075308874141
92 1 9.093730670082547 7.024541800003755 2.716822592662244
93 1 6.61362230551458 5.915403621055793 1.8112150617748288
94 2 5.7869195173252574 8.503392705267704 0.9056075308874137
95 2 8.267027881893226 7.394254526319742 -1.1102230246251565e-15
96 2 3.306811152757291 7.394254526319742 -8.881784197001252e-16
97 1 3.306811152757291 14.04908360000751 6.183645185324487
98 1 9.093730670082547 9.242818157899677 4.528037654437073
99 1 6.613622305514581 10.351956336847639 6.1836451853244885
100 1 5.786919517325258 10.721669063163626 2.7168225926622434
101 1 5.786919517325258 12.939945421059548 4.528037654437073
102 1 8.267027881893226 11.830807242111586 3.622430123549658
103 1 3.306811152757291 11.830807242111588 3.622430123549658
104 2 10.747136246461192 8.503392705267704 0.9056075308874136
105 1 10.747136246461192 10.721669063163626 2.7168225926622434
106 1 8.267027881893226 9.612530884215664 1.8112150617748286
107 1 19.840866916543746 33.82871445791282 18.550935555973467
108 1 10.747136246461192 12.939945421059548 4.528037654437073
109 1 8.267027881893226 14.04908360000751 6.183645185324487
110 1 19.840866916543746 38.26526717370466 22.923365679523123
111 1 22.320975281111714 34.937852636860775 20.20654308686088
112 1 22.320975281111714 37.1561289947567 22.01775814863571
113 1 24.801083645679682 36.04699081580874 21.112150617748295
114 1 19.840866916543746 36.04699081580874 21.112150617748295
115 1 21.49427249292239 37.52584172107269 18.550935555973464
116 1 27.28119201024765 34.937852636860775 20.20654308686088
117 1 24.801083645679682 33.82871445791282 18.550935555973464
118 2 22.320975281111714 39.37440535265262 23.82897321041054
119 1 21.49427249292239 41.962394436864535 22.923365679523123
120 1 27.28119201024765 37.1561289947567 22.017758148635707
121 2 27.28119201024765 39.37440535265262 23.82897321041054
122 1 24.801083645679682 38.26526717370466 22.923365679523126
123 1 23.97438085749036 38.634979900020646 20.20654308686088
124 1 23.97438085749036 40.85325625791658 22.01775814863571
125 1 26.454489222058328 39.74411807896861 21.112150617748295
126 1 21.49427249292239 39.74411807896861 21.112150617748295
127 1 23.147678069301037 41.22296898423256 18.550935555973464
128 1 28.934597586626296 38.634979900020646 20.20654308686088
129 1 26.454489222058328 37.52584172107269 18.550935555973464
130 2 23.97438085749036 43.071532615812494 23.82897321041054
131 1 23.147678069301037 45.659521700024406 22.923365679523123
132 1 28.934597586626296 40.85325625791657 22.017758148635707
133 2 28.934597586626296 43.071532615812494 23.82897321041054
134 1 26.454489222058328 41.962394436864535 22.923365679523126
135 1 25.627786433869005 42.332107163180524 20.20654308686088
136 1 25.627786433869005 44.55038352107645 22.01775814863571
137 1 28.107894798436973 43.44124534212848 21.112150617748295
138 1 23.147678069301037 43.44124534212848 21.112150617748295
139 1 30.58800316300494 42.332107163180524 20.20654308686088
140 1 28.107894798436973 41.22296898423256 18.550935555973464
141 2 25.627786433869005 46.76865987897237 23.82897321041054
142 1 30.58800316300494 44.55038352107644 22.017758148635707
143 2 30.58800316300494 46.76865987897237 23.82897321041054
144 1 28.107894798436973 45.659521700024406 22.923365679523126
