LAMMPS (29 Aug 2024 - Update 2)
#---------------------------------------------------------------------------------------------------
# Initilise important features of simulation
#---------------------------------------------------------------------------------------------------
units 		metal	# Use metals units (Ang, ps, eV, bar, etc.)
dimension 	3		# Run the simulation in three dimensions
boundary 	p p p	# Use periodic boundaries in all three dimensions
atom_style 	atomic	#
#box tilt large		# Allow larger than normal tilt factors

variable T_start equal 600
variable T_end equal 200
variable tstep equal 0.002
timestep ${tstep}
timestep 0.002

read_data   lammps.txt	# Read in atom coordinates from a file
Reading data file ...
  triclinic box = (0 0 0) to (9.9204335 11.091382 22.734581) with tilt (4.9602167 18.600813 40.483544)
WARNING: Triclinic box skew is large. LAMMPS will run inefficiently. (src/domain.cpp:221)
  1 by 1 by 1 MPI processor grid
  reading atoms ...
  144 atoms
  read_data CPU = 0.001 seconds

#---------------------------------------------------------------------------------------------------
# Define how the forces between the atoms will be modelled
#---------------------------------------------------------------------------------------------------
pair_style eam/alloy
pair_coeff * * Zope-Ti-Al-2003.eam.alloy.txt Al Al

#---------------------------------------------------------------------------------------------------
# Set behaviour of simulation
#---------------------------------------------------------------------------------------------------
group g_fixed type 2
36 atoms in group g_fixed
group g_other type 1
108 atoms in group g_other
fix f_freeze g_fixed setforce 0.0 0.0 0.0 	# Hold atoms of type 2 fixed in place
#fix f_constrain g_other setforce 0.0 0.0 NULL 	# All atoms of type 1 to move only in z direction

#---------------------------------------------------------------------------------------------------
# Specify what information to write out
#---------------------------------------------------------------------------------------------------
thermo_style custom step atoms temp pe ke etotal fmax
thermo_modify format 6 %20.10f
thermo 1000

#compute statom all stress/atom NULL
compute peatom all pe/atom
dump 1 all custom 100000 dump.* id type x y z c_peatom
dump_modify 1 first yes


#---------------------------------------------------------------------------------------------------
# Initial relaxation
#---------------------------------------------------------------------------------------------------
velocity all set 0.0 0.0 0.0

min_style 	cg
min_modify dmax 0.1
minimize 	0.0 1.0e-6 10000 100000
Neighbor list info ...
  update: every = 1 steps, delay = 0 steps, check = yes
  max neighbors/atom: 2000, page size: 100000
  master list distance cutoff = 8.724884
  ghost atom cutoff = 8.724884
  binsize = 4.362442, bins = 8 12 6
  1 neighbor lists, perpetual/occasional/extra = 1 0 0
  (1) pair eam/alloy, perpetual
      attributes: half, newton on
      pair build: half/bin/atomonly/newton/tri
      stencil: half/bin/3d/tri
      bin: standard
Per MPI rank memory allocation (min/avg/max) = 4.699 | 4.699 | 4.699 Mbytes
   Step        Atoms         Temp          PotEng         KinEng         TotEng          Fmax     
         0         144   0             -456.0576       0                  -456.0575984120  7.3141535    
        67         144   0             -476.56265      0                  -476.5626470997  1.5516697e-07
Loop time of 0.0112583 on 1 procs for 67 steps with 144 atoms

99.3% CPU use with 1 MPI tasks x no OpenMP threads

Minimization stats:
  Stopping criterion = force tolerance
  Energy initial, next-to-last, final = 
     -456.057598412047  -476.562647099729  -476.562647099729
  Force two-norm initial, final = 24.852199 9.5753655e-07
  Force max component initial, final = 7.3141535 1.5516697e-07
  Final line search alpha, max atom move = 1 1.5516697e-07
  Iterations, force evaluations = 67 127

MPI task timing breakdown:
Section |  min time  |  avg time  |  max time  |%varavg| %total
---------------------------------------------------------------
Pair    | 0.010149   | 0.010149   | 0.010149   |   0.0 | 90.15
Neigh   | 0          | 0          | 0          |   0.0 |  0.00
Comm    | 0.00065041 | 0.00065041 | 0.00065041 |   0.0 |  5.78
Output  | 0          | 0          | 0          |   0.0 |  0.00
Modify  | 1.9335e-05 | 1.9335e-05 | 1.9335e-05 |   0.0 |  0.17
Other   |            | 0.0004393  |            |       |  3.90

Nlocal:            144 ave         144 max         144 min
Histogram: 1 0 0 0 0 0 0 0 0 0
Nghost:           3028 ave        3028 max        3028 min
Histogram: 1 0 0 0 0 0 0 0 0 0
Neighs:          11876 ave       11876 max       11876 min
Histogram: 1 0 0 0 0 0 0 0 0 0

Total # of neighbors = 11876
Ave neighs/atom = 82.472222
Neighbor list builds = 0
Dangerous builds = 0
#---------------------------------------------------------------------------------------------------
# Anneal boundary structures
#---------------------------------------------------------------------------------------------------
reset_timestep 100000
fix md g_other nvt temp ${T_start} ${T_end} $(100.0*v_tstep)
fix md g_other nvt temp 600 ${T_end} $(100.0*v_tstep)
fix md g_other nvt temp 600 200 $(100.0*v_tstep)
fix md g_other nvt temp 600 200 0.2000000000000000111

velocity all create ${T_start} 4928459 rot yes mom yes dist gaussian
velocity all create 600 4928459 rot yes mom yes dist gaussian
run 10000
Per MPI rank memory allocation (min/avg/max) = 4.956 | 4.956 | 4.956 Mbytes
   Step        Atoms         Temp          PotEng         KinEng         TotEng          Fmax     
    100000         144   600           -476.56265      11.09052           -465.4721266587  1.5516699e-07
    101000         144   612.32963     -469.35445      11.318424          -458.0360308036  1.3628502    
    102000         144   618.03163     -469.8024       11.423821          -458.3785753529  1.3968334    
    103000         144   532.68387     -469.95983      9.8462355          -460.1135905797  1.4460769    
    104000         144   534.07027     -470.15907      9.8718621          -460.2872055077  1.2808421    
    105000         144   495.20775     -471.83415      9.1535195          -462.6806306346  1.1975983    
    106000         144   401.7291      -471.66554      7.4256413          -464.2399027923  1.3117561    
    107000         144   432.13919     -472.92003      7.9877476          -464.9322787780  1.012714     
    108000         144   425.3056      -473.86517      7.8614341          -466.0037318503  0.82269081   
    109000         144   365.64475     -473.83826      6.7586509          -467.0796049371  0.97328276   
    110000         144   320.99701     -474.33107      5.9333731          -468.3976952456  0.78425644   
Loop time of 0.887593 on 1 procs for 10000 steps with 144 atoms

Performance: 1946.838 ns/day, 0.012 hours/ns, 11266.426 timesteps/s, 1.622 Matom-step/s
99.8% CPU use with 1 MPI tasks x no OpenMP threads

MPI task timing breakdown:
Section |  min time  |  avg time  |  max time  |%varavg| %total
---------------------------------------------------------------
Pair    | 0.78431    | 0.78431    | 0.78431    |   0.0 | 88.36
Neigh   | 0.028835   | 0.028835   | 0.028835   |   0.0 |  3.25
Comm    | 0.051834   | 0.051834   | 0.051834   |   0.0 |  5.84
Output  | 5.4583e-05 | 5.4583e-05 | 5.4583e-05 |   0.0 |  0.01
Modify  | 0.010473   | 0.010473   | 0.010473   |   0.0 |  1.18
Other   |            | 0.01208    |            |       |  1.36

Nlocal:            144 ave         144 max         144 min
Histogram: 1 0 0 0 0 0 0 0 0 0
Nghost:           3016 ave        3016 max        3016 min
Histogram: 1 0 0 0 0 0 0 0 0 0
Neighs:          11517 ave       11517 max       11517 min
Histogram: 1 0 0 0 0 0 0 0 0 0

Total # of neighbors = 11517
Ave neighs/atom = 79.979167
Neighbor list builds = 62
Dangerous builds = 0
unfix md

#---------------------------------------------------------------------------------------------------
# Final relaxation
#---------------------------------------------------------------------------------------------------
velocity all set 0.0 0.0 0.0

min_style 	cg
min_modify dmax 0.1
minimize 	0.0 1.0e-6 10000 100000
Per MPI rank memory allocation (min/avg/max) = 6.081 | 6.081 | 6.081 Mbytes
   Step        Atoms         Temp          PotEng         KinEng         TotEng          Fmax     
    110000         144   0             -474.33107      0                  -474.3310683838  0.78425644   
    110072         144   0             -477.25681      0                  -477.2568067620  2.0317878e-07
Loop time of 0.0141887 on 1 procs for 72 steps with 144 atoms

92.6% CPU use with 1 MPI tasks x no OpenMP threads

Minimization stats:
  Stopping criterion = force tolerance
  Energy initial, next-to-last, final = 
     -474.331068383774   -477.25680676201  -477.256806762008
  Force two-norm initial, final = 4.7500969 8.8008894e-07
  Force max component initial, final = 0.78425644 2.0317878e-07
  Final line search alpha, max atom move = 1 2.0317878e-07
  Iterations, force evaluations = 72 142

MPI task timing breakdown:
Section |  min time  |  avg time  |  max time  |%varavg| %total
---------------------------------------------------------------
Pair    | 0.011964   | 0.011964   | 0.011964   |   0.0 | 84.32
Neigh   | 0          | 0          | 0          |   0.0 |  0.00
Comm    | 0.00073683 | 0.00073683 | 0.00073683 |   0.0 |  5.19
Output  | 0          | 0          | 0          |   0.0 |  0.00
Modify  | 2.0249e-05 | 2.0249e-05 | 2.0249e-05 |   0.0 |  0.14
Other   |            | 0.001468   |            |       | 10.34

Nlocal:            144 ave         144 max         144 min
Histogram: 1 0 0 0 0 0 0 0 0 0
Nghost:           3024 ave        3024 max        3024 min
Histogram: 1 0 0 0 0 0 0 0 0 0
Neighs:          11526 ave       11526 max       11526 min
Histogram: 1 0 0 0 0 0 0 0 0 0

Total # of neighbors = 11526
Ave neighs/atom = 80.041667
Neighbor list builds = 0
Dangerous builds = 0

Total wall time: 0:00:00
