LAMMPS (29 Aug 2024 - Update 2)
#---------------------------------------------------------------------------------------------------
# Initilise important features of simulation
#---------------------------------------------------------------------------------------------------
units 		metal	# Use metals units (Ang, ps, eV, bar, etc.)
dimension 	3		# Run the simulation in three dimensions
boundary 	p p p	# Use periodic boundaries in all three dimensions
atom_style 	atomic	#
#box tilt large		# Allow larger than normal tilt factors

variable T_start equal 600
variable T_end equal 200
variable tstep equal 0.002
timestep ${tstep}
timestep 0.002

read_data   lammps.txt	# Read in atom coordinates from a file
Reading data file ...
  triclinic box = (0 0 0) to (9.9204335 11.091382 21.734581) with tilt (4.9602167 14.88065 26.619316)
WARNING: Triclinic box skew is large. LAMMPS will run inefficiently. (src/domain.cpp:221)
  1 by 1 by 1 MPI processor grid
  reading atoms ...
  144 atoms
  read_data CPU = 0.001 seconds

#---------------------------------------------------------------------------------------------------
# Define how the forces between the atoms will be modelled
#---------------------------------------------------------------------------------------------------
pair_style eam/alloy
pair_coeff * * Zope-Ti-Al-2003.eam.alloy.txt Al Al

#---------------------------------------------------------------------------------------------------
# Set behaviour of simulation
#---------------------------------------------------------------------------------------------------
group g_fixed type 2
36 atoms in group g_fixed
group g_other type 1
108 atoms in group g_other
fix f_freeze g_fixed setforce 0.0 0.0 0.0 	# Hold atoms of type 2 fixed in place
#fix f_constrain g_other setforce 0.0 0.0 NULL 	# All atoms of type 1 to move only in z direction

#---------------------------------------------------------------------------------------------------
# Specify what information to write out
#---------------------------------------------------------------------------------------------------
thermo_style custom step atoms temp pe ke etotal fmax
thermo_modify format 6 %20.10f
thermo 1000

#compute statom all stress/atom NULL
compute peatom all pe/atom
dump 1 all custom 100000 dump.* id type x y z c_peatom
dump_modify 1 first yes


#---------------------------------------------------------------------------------------------------
# Initial relaxation
#---------------------------------------------------------------------------------------------------
velocity all set 0.0 0.0 0.0

min_style 	cg
min_modify dmax 0.1
minimize 	0.0 1.0e-6 10000 100000
Neighbor list info ...
  update: every = 1 steps, delay = 0 steps, check = yes
  max neighbors/atom: 2000, page size: 100000
  master list distance cutoff = 8.724884
  ghost atom cutoff = 8.724884
  binsize = 4.362442, bins = 7 9 5
  1 neighbor lists, perpetual/occasional/extra = 1 0 0
  (1) pair eam/alloy, perpetual
      attributes: half, newton on
      pair build: half/bin/atomonly/newton/tri
      stencil: half/bin/3d/tri
      bin: standard
Per MPI rank memory allocation (min/avg/max) = 4.653 | 4.653 | 4.653 Mbytes
   Step        Atoms         Temp          PotEng         KinEng         TotEng          Fmax     
         0         144   0             -460.7026       0                  -460.7026026099  5.030674     
        48         144   0             -477.39015      0                  -477.3901495693  8.0077437e-08
Loop time of 0.00858754 on 1 procs for 48 steps with 144 atoms

99.1% CPU use with 1 MPI tasks x no OpenMP threads

Minimization stats:
  Stopping criterion = force tolerance
  Energy initial, next-to-last, final = 
      -460.70260260986  -477.390149569255  -477.390149569255
  Force two-norm initial, final = 21.107513 6.6129688e-07
  Force max component initial, final = 5.030674 8.0077437e-08
  Final line search alpha, max atom move = 1 8.0077437e-08
  Iterations, force evaluations = 48 91

MPI task timing breakdown:
Section |  min time  |  avg time  |  max time  |%varavg| %total
---------------------------------------------------------------
Pair    | 0.0078478  | 0.0078478  | 0.0078478  |   0.0 | 91.39
Neigh   | 0          | 0          | 0          |   0.0 |  0.00
Comm    | 0.00036454 | 0.00036454 | 0.00036454 |   0.0 |  4.24
Output  | 0          | 0          | 0          |   0.0 |  0.00
Modify  | 1.354e-05  | 1.354e-05  | 1.354e-05  |   0.0 |  0.16
Other   |            | 0.0003616  |            |       |  4.21

Nlocal:            144 ave         144 max         144 min
Histogram: 1 0 0 0 0 0 0 0 0 0
Nghost:           2406 ave        2406 max        2406 min
Histogram: 1 0 0 0 0 0 0 0 0 0
Neighs:          12540 ave       12540 max       12540 min
Histogram: 1 0 0 0 0 0 0 0 0 0

Total # of neighbors = 12540
Ave neighs/atom = 87.083333
Neighbor list builds = 0
Dangerous builds = 0
#---------------------------------------------------------------------------------------------------
# Anneal boundary structures
#---------------------------------------------------------------------------------------------------
reset_timestep 100000
fix md g_other nvt temp ${T_start} ${T_end} $(100.0*v_tstep)
fix md g_other nvt temp 600 ${T_end} $(100.0*v_tstep)
fix md g_other nvt temp 600 200 $(100.0*v_tstep)
fix md g_other nvt temp 600 200 0.2000000000000000111

velocity all create ${T_start} 4928459 rot yes mom yes dist gaussian
velocity all create 600 4928459 rot yes mom yes dist gaussian
run 10000
Per MPI rank memory allocation (min/avg/max) = 4.909 | 4.909 | 4.909 Mbytes
   Step        Atoms         Temp          PotEng         KinEng         TotEng          Fmax     
    100000         144   600           -477.39015      11.09052           -466.2996291283  8.0077428e-08
    101000         144   552.24373     -469.1435       10.207784          -458.9357205080  1.6276635    
    102000         144   605.03337     -470.28124      11.183558          -459.0976804713  1.4421708    
    103000         144   545.97206     -471.28977      10.091857          -461.1979147274  1.3547795    
    104000         144   525.38094     -471.05182      9.7112467          -461.3405743241  1.3839487    
    105000         144   474.16685     -472.18265      8.7645953          -463.4180524309  1.0847052    
    106000         144   452.64879     -472.71924      8.3668511          -464.3523903126  1.2064255    
    107000         144   407.56525     -473.30887      7.533518           -465.7753566086  1.105144     
    108000         144   425.46701     -473.60353      7.8644175          -465.7391109837  1.0401457    
    109000         144   345.26328     -474.46547      6.3819159          -468.0835519653  0.92250226   
    110000         144   318.2809      -475.05563      5.8831681          -469.1724624917  1.2379338    
Loop time of 0.882832 on 1 procs for 10000 steps with 144 atoms

Performance: 1957.337 ns/day, 0.012 hours/ns, 11327.180 timesteps/s, 1.631 Matom-step/s
99.9% CPU use with 1 MPI tasks x no OpenMP threads

MPI task timing breakdown:
Section |  min time  |  avg time  |  max time  |%varavg| %total
---------------------------------------------------------------
Pair    | 0.79816    | 0.79816    | 0.79816    |   0.0 | 90.41
Neigh   | 0.021507   | 0.021507   | 0.021507   |   0.0 |  2.44
Comm    | 0.041414   | 0.041414   | 0.041414   |   0.0 |  4.69
Output  | 4.2626e-05 | 4.2626e-05 | 4.2626e-05 |   0.0 |  0.00
Modify  | 0.010537   | 0.010537   | 0.010537   |   0.0 |  1.19
Other   |            | 0.01117    |            |       |  1.27

Nlocal:            144 ave         144 max         144 min
Histogram: 1 0 0 0 0 0 0 0 0 0
Nghost:           2406 ave        2406 max        2406 min
Histogram: 1 0 0 0 0 0 0 0 0 0
Neighs:          12132 ave       12132 max       12132 min
Histogram: 1 0 0 0 0 0 0 0 0 0

Total # of neighbors = 12132
Ave neighs/atom = 84.25
Neighbor list builds = 44
Dangerous builds = 0
unfix md

#---------------------------------------------------------------------------------------------------
# Final relaxation
#---------------------------------------------------------------------------------------------------
velocity all set 0.0 0.0 0.0

min_style 	cg
min_modify dmax 0.1
minimize 	0.0 1.0e-6 10000 100000
Per MPI rank memory allocation (min/avg/max) = 6.034 | 6.034 | 6.034 Mbytes
   Step        Atoms         Temp          PotEng         KinEng         TotEng          Fmax     
    110000         144   0             -475.05563      0                  -475.0556305417  1.2379338    
    110063         144   0             -477.95793      0                  -477.9579282363  1.6365566e-07
Loop time of 0.0120804 on 1 procs for 63 steps with 144 atoms

98.5% CPU use with 1 MPI tasks x no OpenMP threads

Minimization stats:
  Stopping criterion = force tolerance
  Energy initial, next-to-last, final = 
     -475.055630541749  -477.957928236273  -477.957928236271
  Force two-norm initial, final = 5.30625 7.87986e-07
  Force max component initial, final = 1.2379338 1.6365566e-07
  Final line search alpha, max atom move = 1 1.6365566e-07
  Iterations, force evaluations = 63 124

MPI task timing breakdown:
Section |  min time  |  avg time  |  max time  |%varavg| %total
---------------------------------------------------------------
Pair    | 0.011012   | 0.011012   | 0.011012   |   0.0 | 91.16
Neigh   | 0          | 0          | 0          |   0.0 |  0.00
Comm    | 0.00051041 | 0.00051041 | 0.00051041 |   0.0 |  4.23
Output  | 0          | 0          | 0          |   0.0 |  0.00
Modify  | 1.9213e-05 | 1.9213e-05 | 1.9213e-05 |   0.0 |  0.16
Other   |            | 0.0005389  |            |       |  4.46

Nlocal:            144 ave         144 max         144 min
Histogram: 1 0 0 0 0 0 0 0 0 0
Nghost:           2390 ave        2390 max        2390 min
Histogram: 1 0 0 0 0 0 0 0 0 0
Neighs:          12127 ave       12127 max       12127 min
Histogram: 1 0 0 0 0 0 0 0 0 0

Total # of neighbors = 12127
Ave neighs/atom = 84.215278
Neighbor list builds = 0
Dangerous builds = 0

Total wall time: 0:00:00
