ITEM: TIMESTEP
0
ITEM: NUMBER OF ATOMS
144
ITEM: BOX BOUNDS xy xz yz pp pp pp
0.0000000000000000e+00 3.0381327465957611e+01 4.9602167291359365e+00
0.0000000000000000e+00 5.0188502597395242e+01 1.5500677278549805e+01
0.0000000000000000e+00 2.2734580741297954e+01 3.9097120807915630e+01
ITEM: ATOMS id type x y z c_peatom
69 2 4.96022 3.81855e-16 0 -3.36905
70 2 0 0 0 -3.36905
82 2 1.65341 3.69713 0 -3.36905
81 2 6.61362 3.69713 0 -3.36905
80 2 4.13351 4.80627 0.905608 -3.36339
86 1 4.13351 7.02454 2.71682 -3.37538
88 1 6.61362 8.13368 3.62243 -3.36378
91 2 9.09373 4.80627 0.905608 -3.36339
92 1 9.09373 7.02454 2.71682 -3.37538
93 1 6.61362 5.9154 1.81122 -3.37049
94 2 5.78692 8.50339 0.905608 -3.36413
95 2 8.26703 7.39425 0 -3.36905
76 1 11.5738 5.9154 1.81122 -3.37049
89 1 11.5738 8.13368 3.62243 -3.36378
96 2 13.2272 7.39425 0 -3.36905
104 2 10.7471 8.50339 0.905608 -3.36413
87 1 4.13351 9.24282 4.52804 -3.27995
68 2 7.44033 12.2005 0.905608 -3.36388
79 1 9.92043 13.3097 1.81122 -3.37543
98 1 9.09373 9.24282 4.52804 -3.27995
100 1 5.78692 10.7217 2.71682 -3.36623
101 1 5.78692 12.9399 4.52804 -3.19641
102 1 8.26703 11.8308 3.62243 -3.33178
106 1 8.26703 9.61253 1.81122 -3.37084
67 1 14.8807 13.3097 1.81122 -3.37543
77 2 12.4005 12.2005 0.905608 -3.36388
90 1 13.2272 9.61253 1.81122 -3.37084
103 1 13.2272 11.8308 3.62243 -3.33178
105 1 10.7471 10.7217 2.71682 -3.36623
108 1 10.7471 12.9399 4.52804 -3.19641
72 1 7.44033 14.4188 2.71682 -3.35254
73 1 7.44033 16.6371 4.52804 -3.25603
74 1 9.92043 15.5279 3.62243 -3.34348
75 1 14.8807 15.5279 3.62243 -3.34348
78 1 12.4005 14.4188 2.71682 -3.35254
84 1 12.4005 16.6371 4.52804 -3.25603
99 1 6.61362 10.352 5.68365 -0.386287
83 1 11.5738 10.352 5.68365 -0.386287
5 1 8.57704 17.7 6.83925 -2.33376
9 1 7.75034 15.112 7.74486 -3.12356
85 1 9.92043 17.7462 5.68365 -2.28448
109 1 8.26703 14.0491 5.68365 -2.82624
1 1 10.2304 14.0029 6.83925 -2.93657
2 1 15.1907 14.0029 6.83925 -2.93657
3 1 12.7106 15.112 7.74486 -3.12356
4 1 15.1907 16.2211 8.65047 -3.37355
6 1 10.2304 16.2211 8.65047 -3.37355
14 1 13.5373 17.7 6.83925 -2.33376
71 1 14.8807 17.7462 5.68365 -2.28448
97 1 13.2272 14.0491 5.68365 -2.82624
17 1 8.57704 19.9183 8.65047 -3.36555
22 1 9.40374 22.5063 7.74486 -3.29618
15 1 11.0571 18.8091 7.74486 -3.25715
16 1 13.5373 19.9183 8.65047 -3.36555
35 1 11.8839 21.3971 6.83925 -0.35942
44 1 14.364 22.5063 7.74486 -3.29618
20 1 16.0174 18.8091 7.74486 -3.25715
21 1 16.8441 21.3971 6.83925 -0.35942
36 1 11.8839 23.6154 8.65047 -3.38125
41 1 16.8441 23.6154 8.65047 -3.38125
7 1 7.75034 17.3303 9.55608 -3.37783
13 1 12.7106 17.3303 9.55608 -3.37783
8 2 10.2304 18.4394 10.4617 -3.37742
10 2 15.1907 18.4394 10.4617 -3.37742
31 2 13.5373 22.1365 10.4617 -3.36137
34 1 11.0571 21.0274 9.55608 -3.39177
18 1 16.0174 21.0274 9.55608 -3.39177
19 2 18.4975 22.1365 10.4617 -3.36137
32 2 11.0571 23.2457 11.3673 -3.36763
33 2 13.5373 24.3548 12.2729 -3.37338
42 1 14.364 24.7245 9.55608 -3.37793
52 1 11.0571 25.464 13.1785 -3.37793
53 2 11.8839 25.8337 10.4617 -3.37338
60 2 14.364 26.9428 11.3673 -3.36763
37 2 18.4975 24.3548 12.2729 -3.37338
38 1 16.0174 25.464 13.1785 -3.37793
40 2 16.0174 23.2457 11.3673 -3.36763
43 2 16.8441 25.8337 10.4617 -3.37338
45 2 19.3242 26.9428 11.3673 -3.36763
46 1 19.3242 24.7245 9.55608 -3.37793
26 2 12.7106 30.6399 11.3673 -3.37158
54 2 11.8839 28.052 12.2729 -3.36137
58 1 14.364 29.1611 13.1785 -3.39177
11 2 17.6708 30.6399 11.3673 -3.37158
12 2 20.1509 31.7491 12.2729 -3.37742
23 2 15.1907 31.7491 12.2729 -3.37742
57 2 16.8441 28.052 12.2729 -3.36137
62 1 19.3242 29.1611 13.1785 -3.39177
30 1 17.6708 32.8582 13.1785 -3.37783
24 1 22.631 32.8582 13.1785 -3.37783
49 1 13.5373 26.5731 14.0841 -3.38125
39 1 18.4975 26.5731 14.0841 -3.38125
51 1 13.5373 28.7914 15.8953 -0.35942
66 1 14.364 31.3794 14.9897 -3.25715
55 1 18.4975 28.7914 15.8953 -0.35942
56 1 16.0174 27.6822 14.9897 -3.29618
59 1 16.8441 30.2702 14.0841 -3.36555
61 1 19.3242 31.3794 14.9897 -3.25715
50 1 20.9776 27.6822 14.9897 -3.29618
63 1 21.8043 30.2702 14.0841 -3.36555
25 1 15.1907 33.9674 14.0841 -3.37355
27 1 20.1509 33.9674 14.0841 -3.37355
28 1 17.6708 35.0765 14.9897 -3.12356
29 1 20.1509 36.1856 15.8953 -2.93657
47 1 15.1907 36.1856 15.8953 -2.93657
65 1 16.8441 32.4885 15.8953 -2.33376
107 1 15.5007 32.4423 17.0509 -2.28448
115 1 17.1541 36.1394 17.0509 -2.82624
48 1 22.631 35.0765 14.9897 -3.12356
64 1 21.8043 32.4885 15.8953 -2.33376
117 1 20.4609 32.4423 17.0509 -2.28448
129 1 22.1143 36.1394 17.0509 -2.82624
127 1 18.8075 39.8365 17.0509 -0.386287
140 1 23.7677 39.8365 17.0509 -0.386287
111 1 17.9808 33.5514 18.2065 -3.25603
112 1 17.9808 35.7697 20.0178 -3.35254
114 1 15.5007 34.6606 19.1122 -3.34348
113 1 20.4609 34.6606 19.1122 -3.34348
116 1 22.941 33.5514 18.2065 -3.25603
120 1 22.941 35.7697 20.0178 -3.35254
110 1 15.5007 36.8788 20.9234 -3.37543
118 2 17.9808 37.988 21.829 -3.36388
119 1 17.1541 40.576 20.9234 -3.37084
123 1 19.6342 37.2486 18.2065 -3.19641
124 1 19.6342 39.4668 20.0178 -3.36623
126 1 17.1541 38.3577 19.1122 -3.33178
121 2 22.941 37.988 21.829 -3.36388
122 1 20.4609 36.8788 20.9234 -3.37543
125 1 22.1143 38.3577 19.1122 -3.33178
128 1 24.5944 37.2486 18.2065 -3.19641
132 1 24.5944 39.4668 20.0178 -3.36623
134 1 22.1143 40.576 20.9234 -3.37084
135 1 21.2876 40.9457 18.2065 -3.27995
139 1 26.2478 40.9457 18.2065 -3.27995
130 2 19.6342 41.6851 21.829 -3.36413
131 1 18.8075 44.2731 20.9234 -3.37049
138 1 18.8075 42.0548 19.1122 -3.36378
133 2 24.5944 41.6851 21.829 -3.36413
136 1 21.2876 43.164 20.0178 -3.37538
137 1 23.7677 42.0548 19.1122 -3.36378
141 2 21.2876 45.3822 21.829 -3.36339
144 1 23.7677 44.2731 20.9234 -3.37049
142 1 26.2478 43.164 20.0178 -3.37538
143 2 26.2478 45.3822 21.829 -3.36339
