#Lammps coordinate file for CSL - Axis: [1 1 1]  Angle: (1, 3) -> 59.99999999999999  Plane indices: [0 1 1]  z-position: [5.6836451853244885 17.050935555973464]  Repeats: 1 1 (3, 3) (black, white)  Fixed: 2.228  Boundary equiv: True
144 atoms

2 atom types

0.0 9.920433458271871 xlo xhi
0.0 11.091381789479609 ylo yhi
0.0 22.734580741297954 zlo zhi
4.9602167291359365 14.260623096265821 36.32427536054573 xy xz yz

Atoms

1 1 9.610419912700877 12.616446785533057 6.839252716211904
2 1 14.57063664183681 12.616446785533055 6.839252716211904
3 1 12.090528277268845 13.725584964481016 7.74486024709932
4 1 14.57063664183681 14.834723143428977 8.650467777986734
5 1 17.8774477945941 16.313574048692924 6.839252716211904
6 1 9.610419912700877 14.834723143428977 8.650467777986734
7 1 7.13031154813291 15.94386132237694 9.55607530887415
8 2 9.610419912700877 17.0529995013249 10.461682839761563
9 1 7.13031154813291 13.725584964481019 7.744860247099319
10 2 14.57063664183681 17.0529995013249 10.461682839761563
11 2 12.090528277268845 18.16213768027286 11.367290370648979
12 2 14.570636641836812 19.27127585922082 12.272897901536393
13 1 12.090528277268845 15.94386132237694 9.55607530887415
14 1 12.917231065458164 16.313574048692924 6.839252716211904
15 1 10.4371227008902 17.422712227640886 7.744860247099319
16 1 12.917231065458166 18.53185040658885 8.650467777986734
17 1 17.8774477945941 18.53185040658885 8.650467777986734
18 1 15.397339430026136 19.64098858553681 9.55607530887415
19 2 17.877447794594104 20.75012676448477 10.461682839761563
20 1 15.397339430026133 17.422712227640886 7.74486024709932
21 1 16.22404221821546 20.010701311852795 6.839252716211903
22 1 18.704150582783427 21.119839490800757 7.744860247099318
23 2 9.610419912700877 19.27127585922082 12.272897901536393
24 1 7.1303115481329105 20.380414038168784 13.178505432423808
25 1 9.610419912700877 21.489552217116746 14.084112963311222
26 2 7.1303115481329105 18.162137680272863 11.367290370648979
27 1 14.570636641836813 21.489552217116746 14.084112963311222
28 1 12.090528277268845 22.598690396064704 14.989720494198638
29 1 14.570636641836813 23.707828575012666 15.895328025086053
30 1 12.090528277268845 20.380414038168784 13.178505432423808
31 2 12.917231065458168 20.750126764484772 10.461682839761563
32 2 10.4371227008902 21.85926494343273 11.367290370648979
33 2 12.917231065458168 22.968403122380693 12.272897901536393
34 1 10.4371227008902 19.64098858553681 9.55607530887415
35 1 11.263825489079522 20.010701311852795 6.839252716211903
36 1 11.263825489079522 22.22897766974872 8.650467777986734
37 2 17.877447794594104 22.968403122380693 12.272897901536393
38 1 15.397339430026136 24.077541301328655 13.178505432423808
39 1 17.877447794594104 25.186679480276617 14.084112963311224
40 2 15.397339430026136 21.85926494343273 11.367290370648979
41 1 16.22404221821546 22.228977669748716 8.650467777986734
42 1 13.74393385364749 23.33811584869668 9.55607530887415
43 2 16.22404221821546 24.44725402764464 10.461682839761563
44 1 13.74393385364749 21.119839490800757 7.744860247099319
45 2 18.704150582783427 25.5563922065926 11.367290370648977
46 1 18.704150582783427 23.338115848696678 9.55607530887415
47 1 9.610419912700879 23.70782857501267 15.895328025086052
48 1 7.130311548132911 22.598690396064708 14.989720494198638
49 1 12.917231065458168 25.186679480276617 14.084112963311222
50 1 10.437122700890203 26.295817659224575 14.989720494198638
51 1 12.917231065458168 27.404955838172537 15.895328025086053
52 1 10.437122700890201 24.077541301328655 13.178505432423808
53 2 11.263825489079522 24.44725402764464 10.461682839761563
54 2 11.263825489079522 26.665530385540563 12.272897901536393
55 1 17.877447794594104 27.404955838172537 15.895328025086052
56 1 15.397339430026136 26.295817659224575 14.98972049419864
57 2 16.22404221821546 26.665530385540563 12.272897901536393
58 1 13.74393385364749 27.774668564488525 13.178505432423808
59 1 16.22404221821546 28.883806743436487 14.084112963311224
60 2 13.74393385364749 25.5563922065926 11.367290370648979
61 1 18.704150582783424 29.992944922384446 14.989720494198636
62 1 18.704150582783424 27.774668564488522 13.178505432423808
63 1 11.263825489079522 28.883806743436487 14.08411296331122
64 1 11.263825489079522 31.102083101332408 15.895328025086052
65 1 16.22404221821546 31.102083101332408 15.89532802508605
66 1 13.74393385364749 29.992944922384446 14.989720494198638
67 1 0.0 2.2182763578959226 1.8112150617748295
68 2 2.4801083645679673 1.109138178947961 0.9056075308874145
69 2 4.960216729135936 -8.881784197001252e-16 -2.220446049250313e-16
70 2 0.0 0.0 0.0
71 1 8.881784197001252e-16 6.654829073687768 5.6836451853244885
72 1 2.4801083645679673 3.327414536843884 2.7168225926622442
73 1 2.4801083645679682 5.545690894739806 4.528037654437074
74 1 4.960216729135936 4.436552715791845 3.622430123549659
75 1 8.881784197001252e-16 4.436552715791845 3.622430123549659
76 1 1.6534055763786455 5.915403621055794 1.811215061774829
77 2 7.440325093703903 1.109138178947961 0.9056075308874145
78 1 7.440325093703903 3.3274145368438837 2.7168225926622442
79 1 4.960216729135936 2.218276357895922 1.8112150617748293
80 2 4.133513940946613 4.806265442107832 0.9056075308874143
81 2 6.61362230551458 3.6971272631598704 -6.106226635438361e-16
82 2 1.6534055763786455 3.697127263159871 -3.885780586188048e-16
83 1 1.6534055763786455 10.351956336847639 5.6836451853244885
84 1 7.440325093703903 5.545690894739806 4.528037654437074
85 1 4.960216729135936 6.654829073687768 5.6836451853244885
86 1 4.133513940946613 7.024541800003755 2.716822592662244
87 1 4.133513940946613 9.242818157899677 4.528037654437074
88 1 6.61362230551458 8.133679978951715 3.6224301235496585
89 1 1.6534055763786455 8.133679978951717 3.6224301235496585
90 1 3.3068111527572905 9.612530884215664 1.8112150617748288
91 2 9.093730670082548 4.806265442107832 0.9056075308874141
92 1 9.093730670082547 7.024541800003755 2.716822592662244
93 1 6.61362230551458 5.915403621055793 1.8112150617748288
94 2 5.7869195173252574 8.503392705267704 0.9056075308874139
95 2 8.267027881893226 7.394254526319742 -9.43689570931383e-16
96 2 3.3068111527572905 7.394254526319742 -8.326672684688674e-16
97 1 3.306811152757291 14.04908360000751 5.683645185324488
98 1 9.093730670082547 9.242818157899677 4.528037654437074
99 1 6.613622305514581 10.351956336847639 5.6836451853244885
100 1 5.786919517325258 10.721669063163626 2.7168225926622434
101 1 5.786919517325258 12.939945421059548 4.528037654437073
102 1 8.267027881893226 11.830807242111586 3.622430123549658
103 1 3.306811152757291 11.830807242111588 3.622430123549658
104 2 10.747136246461192 8.503392705267704 0.9056075308874136
105 1 10.747136246461192 10.721669063163626 2.7168225926622434
106 1 8.267027881893226 9.612530884215664 1.8112150617748286
107 1 14.260623096265817 29.66944628685796 17.050935555973467
108 1 10.747136246461192 12.939945421059548 4.528037654437073
109 1 8.267027881893226 14.04908360000751 5.683645185324488
110 1 14.260623096265817 34.1059990026498 20.923365679523123
111 1 16.740731460833786 30.77858446580592 18.20654308686088
112 1 16.740731460833786 32.996860823701844 20.01775814863571
113 1 19.220839825401754 31.887722644753882 19.112150617748295
114 1 14.260623096265817 31.887722644753882 19.112150617748295
115 1 15.914028672644463 33.36657355001783 17.050935555973464
116 1 21.70094818996972 30.77858446580592 18.20654308686088
117 1 19.220839825401754 29.66944628685796 17.050935555973464
118 2 16.740731460833786 35.21513718159777 21.82897321041054
119 1 15.914028672644463 37.803126265809674 20.923365679523123
120 1 21.70094818996972 32.996860823701844 20.017758148635707
121 2 21.700948189969722 35.21513718159777 21.82897321041054
122 1 19.220839825401754 34.1059990026498 20.923365679523126
123 1 18.39413703721243 34.47571172896579 18.20654308686088
124 1 18.39413703721243 36.693988086861715 20.01775814863571
125 1 20.8742454017804 35.58484990791376 19.112150617748295
126 1 15.914028672644463 35.58484990791376 19.112150617748295
127 1 17.56743424902311 37.063700813177704 17.050935555973464
128 1 23.354353766348368 34.47571172896579 18.20654308686088
129 1 20.8742454017804 33.36657355001783 17.050935555973464
130 2 18.39413703721243 38.91226444475764 21.82897321041054
131 1 17.56743424902311 41.500253528969544 20.923365679523123
132 1 23.354353766348368 36.693988086861715 20.017758148635707
133 2 23.354353766348368 38.91226444475764 21.82897321041054
134 1 20.8742454017804 37.803126265809674 20.923365679523126
135 1 20.047542613591077 38.17283899212566 18.20654308686088
136 1 20.047542613591077 40.391115350021586 20.01775814863571
137 1 22.527650978159045 39.28197717107363 19.112150617748295
138 1 17.56743424902311 39.28197717107363 19.112150617748295
139 1 25.007759342727013 38.17283899212566 18.20654308686088
140 1 22.527650978159045 37.063700813177704 17.050935555973464
141 2 20.047542613591077 42.60939170791751 21.82897321041054
142 1 25.007759342727013 40.391115350021586 20.017758148635707
143 2 25.007759342727013 42.60939170791751 21.82897321041054
144 1 22.527650978159045 41.500253528969544 20.923365679523126
