#Lammps coordinate file for CSL - Axis: [1 1 1]  Angle: (1, 3) -> 59.99999999999999  Plane indices: [0 1 1]  z-position: [5.9336451853244885 17.800935555973464]  Repeats: 1 1 (3, 3) (black, white)  Fixed: 2.228  Boundary equiv: True
144 atoms

2 atom types

0.0 9.920433458271871 xlo xhi
0.0 11.091381789479609 ylo yhi
0.0 23.734580741297954 zlo zhi
4.9602167291359365 8.680379275987892 26.61931629475107 xy xz yz

Atoms

1 1 6.820298002561913 7.7639672526357275 7.339252716211904
2 1 11.780514731697846 7.763967252635727 7.339252716211904
3 1 9.300406367129881 8.873105431583689 8.24486024709932
4 1 11.780514731697846 9.98224361053165 9.150467777986734
5 1 15.087325884455137 11.461094515795597 7.339252716211904
6 1 6.820298002561913 9.98224361053165 9.150467777986734
7 1 4.340189637993945 11.091381789479613 10.05607530887415
8 2 6.820298002561913 12.200519968427573 10.961682839761563
9 1 4.340189637993945 8.87310543158369 8.244860247099318
10 2 11.780514731697846 12.200519968427573 10.961682839761563
11 2 9.300406367129881 13.309658147375533 11.867290370648979
12 2 11.780514731697847 14.418796326323495 12.772897901536393
13 1 9.300406367129881 11.091381789479613 10.05607530887415
14 1 10.1271091553192 11.461094515795597 7.339252716211904
15 1 7.647000790751235 12.57023269474356 8.244860247099318
16 1 10.127109155319202 13.679370873691521 9.150467777986734
17 1 15.087325884455137 13.67937087369152 9.150467777986734
18 1 12.607217519887172 14.788509052639482 10.05607530887415
19 2 15.08732588445514 15.897647231587442 10.961682839761563
20 1 12.607217519887168 12.57023269474356 8.24486024709932
21 1 13.433920308076495 15.158221778955468 7.339252716211903
22 1 15.914028672644463 16.26735995790343 8.244860247099318
23 2 6.8202980025619135 14.418796326323495 12.772897901536393
24 1 4.340189637993946 15.527934505271457 13.678505432423808
25 1 6.8202980025619135 16.63707268421942 14.584112963311222
26 2 4.340189637993946 13.309658147375535 11.867290370648979
27 1 11.78051473169785 16.63707268421942 14.584112963311222
28 1 9.300406367129881 17.746210863167377 15.489720494198638
29 1 11.78051473169785 18.85534904211534 16.39532802508605
30 1 9.300406367129881 15.527934505271457 13.678505432423808
31 2 10.127109155319204 15.897647231587444 10.961682839761563
32 2 7.647000790751236 17.006785410535404 11.867290370648979
33 2 10.127109155319204 18.115923589483366 12.772897901536393
34 1 7.647000790751236 14.788509052639483 10.05607530887415
35 1 8.473703578940558 15.158221778955468 7.339252716211903
36 1 8.473703578940558 17.376498136851392 9.150467777986734
37 2 15.08732588445514 18.115923589483366 12.772897901536393
38 1 12.607217519887172 19.225061768431328 13.678505432423808
39 1 15.08732588445514 20.33419994737929 14.584112963311224
40 2 12.607217519887172 17.006785410535404 11.867290370648979
41 1 13.433920308076495 17.37649813685139 9.150467777986734
42 1 10.953811943508526 18.485636315799354 10.05607530887415
43 2 13.433920308076495 19.594774494747313 10.961682839761563
44 1 10.953811943508526 16.26735995790343 8.244860247099318
45 2 15.914028672644463 20.703912673695275 11.867290370648977
46 1 15.914028672644463 18.48563631579935 10.05607530887415
47 1 6.820298002561914 18.855349042115343 16.39532802508605
48 1 4.340189637993947 17.74621086316738 15.489720494198638
49 1 10.127109155319204 20.33419994737929 14.584112963311222
50 1 7.647000790751238 21.443338126327248 15.489720494198638
51 1 10.127109155319204 22.55247630527521 16.39532802508605
52 1 7.647000790751237 19.225061768431328 13.678505432423808
53 2 8.473703578940558 19.594774494747313 10.961682839761563
54 2 8.473703578940558 21.813050852643237 12.772897901536393
55 1 15.08732588445514 22.55247630527521 16.39532802508605
56 1 12.607217519887172 21.443338126327248 15.48972049419864
57 2 13.433920308076495 21.813050852643237 12.772897901536393
58 1 10.953811943508526 22.9221890315912 13.678505432423808
59 1 13.433920308076495 24.03132721053916 14.584112963311224
60 2 10.953811943508526 20.703912673695275 11.867290370648979
61 1 15.91402867264446 25.14046538948712 15.489720494198636
62 1 15.91402867264446 22.922189031591195 13.678505432423808
63 1 8.473703578940558 24.03132721053916 14.58411296331122
64 1 8.473703578940558 26.24960356843508 16.39532802508605
65 1 13.433920308076495 26.24960356843508 16.395328025086048
66 1 10.953811943508526 25.14046538948712 15.489720494198638
67 1 0.0 2.2182763578959226 1.8112150617748295
68 2 2.480108364567968 1.109138178947961 0.9056075308874146
69 2 4.960216729135936 -4.440892098500626e-16 -1.1102230246251565e-16
70 2 0.0 0.0 0.0
71 1 8.881784197001252e-16 6.654829073687768 5.9336451853244885
72 1 2.480108364567968 3.327414536843884 2.7168225926622442
73 1 2.4801083645679682 5.545690894739806 4.528037654437074
74 1 4.960216729135936 4.436552715791845 3.622430123549659
75 1 8.881784197001252e-16 4.436552715791845 3.622430123549659
76 1 1.6534055763786455 5.915403621055794 1.811215061774829
77 2 7.440325093703903 1.109138178947961 0.9056075308874145
78 1 7.440325093703903 3.3274145368438837 2.7168225926622442
79 1 4.960216729135936 2.218276357895922 1.8112150617748295
80 2 4.133513940946613 4.806265442107832 0.9056075308874143
81 2 6.61362230551458 3.6971272631598704 -5.551115123125783e-16
82 2 1.6534055763786455 3.697127263159871 -3.3306690738754696e-16
83 1 1.6534055763786455 10.351956336847639 5.9336451853244885
84 1 7.440325093703903 5.545690894739806 4.528037654437074
85 1 4.960216729135936 6.654829073687768 5.9336451853244885
86 1 4.133513940946613 7.024541800003755 2.716822592662244
87 1 4.133513940946613 9.242818157899677 4.528037654437074
88 1 6.61362230551458 8.133679978951715 3.6224301235496585
89 1 1.6534055763786455 8.133679978951717 3.6224301235496585
90 1 3.3068111527572905 9.612530884215664 1.811215061774829
91 2 9.093730670082548 4.806265442107832 0.9056075308874142
92 1 9.093730670082547 7.024541800003755 2.716822592662244
93 1 6.61362230551458 5.915403621055793 1.811215061774829
94 2 5.7869195173252574 8.503392705267704 0.9056075308874139
95 2 8.267027881893226 7.394254526319742 -9.992007221626409e-16
96 2 3.3068111527572905 7.394254526319742 -7.771561172376096e-16
97 1 3.306811152757291 14.04908360000751 5.933645185324488
98 1 9.093730670082547 9.242818157899677 4.528037654437074
99 1 6.613622305514581 10.351956336847639 5.9336451853244885
100 1 5.786919517325258 10.721669063163626 2.7168225926622434
101 1 5.786919517325258 12.939945421059548 4.528037654437073
102 1 8.267027881893226 11.830807242111586 3.622430123549658
103 1 3.306811152757291 11.830807242111588 3.622430123549658
104 2 10.747136246461192 8.503392705267704 0.9056075308874137
105 1 10.747136246461192 10.721669063163626 2.7168225926622434
106 1 8.267027881893226 9.612530884215664 1.8112150617748286
107 1 8.680379275987889 19.964487221063305 17.800935555973467
108 1 10.747136246461192 12.939945421059548 4.528037654437073
109 1 8.267027881893226 14.04908360000751 5.933645185324488
110 1 8.680379275987889 24.40103993685515 21.923365679523123
111 1 11.160487640555855 21.073625400011267 19.20654308686088
112 1 11.160487640555857 23.29190175790719 21.01775814863571
113 1 13.640596005123825 22.18276357895923 20.112150617748295
114 1 8.680379275987889 22.18276357895923 20.112150617748295
115 1 10.333784852366534 23.661614484223175 17.800935555973464
116 1 16.12070436969179 21.073625400011267 19.20654308686088
117 1 13.640596005123825 19.964487221063305 17.800935555973464
118 2 11.160487640555857 25.51017811580311 22.82897321041054
119 1 10.333784852366534 28.09816720001502 21.923365679523123
120 1 16.12070436969179 23.291901757907187 21.017758148635707
121 2 16.120704369691794 25.51017811580311 22.82897321041054
122 1 13.640596005123825 24.40103993685515 21.923365679523126
123 1 12.813893216934503 24.770752663171137 19.20654308686088
124 1 12.813893216934503 26.98902902106706 21.01775814863571
125 1 15.29400158150247 25.8798908421191 20.112150617748295
126 1 10.333784852366534 25.8798908421191 20.112150617748295
127 1 11.98719042874518 27.358741747383046 17.800935555973464
128 1 17.77410994607044 24.770752663171137 19.20654308686088
129 1 15.29400158150247 23.661614484223175 17.800935555973464
130 2 12.813893216934503 29.20730537896298 22.82897321041054
131 1 11.98719042874518 31.79529446317489 21.923365679523123
132 1 17.77410994607044 26.989029021067058 21.017758148635707
133 2 17.77410994607044 29.20730537896298 22.82897321041054
134 1 15.29400158150247 28.09816720001502 21.923365679523126
135 1 14.467298793313148 28.46787992633101 19.20654308686088
136 1 14.467298793313148 30.686156284226932 21.01775814863571
137 1 16.947407157881116 29.57701810527897 20.112150617748295
138 1 11.98719042874518 29.57701810527897 20.112150617748295
139 1 19.427515522449085 28.46787992633101 19.20654308686088
140 1 16.947407157881116 27.358741747383046 17.800935555973464
141 2 14.467298793313148 32.904432642122856 22.82897321041054
142 1 19.427515522449085 30.68615628422693 21.017758148635707
143 2 19.427515522449085 32.904432642122856 22.82897321041054
144 1 16.947407157881116 31.79529446317489 21.923365679523126
