#Lammps coordinate file for CSL - Axis: [1 1 1]  Angle: (1, 3) -> 59.99999999999999  Plane indices: [0 1 1]  z-position: [5.4336451853244885 16.300935555973464]  Repeats: 1 1 (3, 3) (black, white)  Fixed: 2.228  Boundary equiv: True
144 atoms

2 atom types

0.0 9.920433458271871 xlo xhi
0.0 11.091381789479609 ylo yhi
0.0 21.734580741297954 zlo zhi
4.9602167291359365 9.300406367129884 30.778584465805924 xy xz yz

Atoms

1 1 7.130311548132909 9.843601338163154 6.339252716211904
2 1 12.090528277268842 9.843601338163154 6.339252716211904
3 1 9.610419912700877 10.952739517111116 7.24486024709932
4 1 12.090528277268842 12.061877696059078 8.150467777986734
5 1 15.397339430026133 13.540728601323025 6.339252716211904
6 1 7.130311548132909 12.061877696059078 8.150467777986734
7 1 4.650203183564941 13.17101587500704 9.05607530887415
8 2 7.130311548132909 14.280154053954998 9.961682839761563
9 1 4.650203183564941 10.952739517111116 7.244860247099319
10 2 12.090528277268842 14.280154053954998 9.961682839761563
11 2 9.610419912700877 15.38929223290296 10.867290370648979
12 2 12.090528277268843 16.498430411850922 11.772897901536393
13 1 9.610419912700877 13.17101587500704 9.05607530887415
14 1 10.437122700890196 13.540728601323025 6.339252716211904
15 1 7.957014336322231 14.649866780270987 7.244860247099319
16 1 10.437122700890198 15.759004959218949 8.150467777986734
17 1 15.397339430026133 15.759004959218945 8.150467777986734
18 1 12.917231065458168 16.868143138166907 9.05607530887415
19 2 15.397339430026136 17.97728131711487 9.961682839761563
20 1 12.917231065458164 14.649866780270987 7.24486024709932
21 1 13.74393385364749 17.237855864482896 6.339252716211903
22 1 16.22404221821546 18.346994043430858 7.244860247099318
23 2 7.13031154813291 16.498430411850922 11.772897901536393
24 1 4.650203183564942 17.607568590798884 12.678505432423808
25 1 7.13031154813291 18.716706769746846 13.584112963311222
26 2 4.650203183564942 15.38929223290296 10.867290370648979
27 1 12.090528277268845 18.716706769746846 13.584112963311222
28 1 9.610419912700877 19.825844948694805 14.489720494198638
29 1 12.090528277268845 20.934983127642766 15.395328025086053
30 1 9.610419912700877 17.607568590798884 12.678505432423808
31 2 10.4371227008902 17.97728131711487 9.961682839761563
32 2 7.957014336322232 19.08641949606283 10.867290370648979
33 2 10.4371227008902 20.195557675010793 11.772897901536393
34 1 7.957014336322232 16.86814313816691 9.05607530887415
35 1 8.783717124511554 17.237855864482896 6.339252716211903
36 1 8.783717124511554 19.45613222237882 8.150467777986734
37 2 15.397339430026136 20.195557675010793 11.772897901536393
38 1 12.917231065458168 21.304695853958755 12.678505432423808
39 1 15.397339430026136 22.413834032906717 13.584112963311224
40 2 12.917231065458168 19.08641949606283 10.867290370648979
41 1 13.74393385364749 19.456132222378816 8.150467777986734
42 1 11.263825489079522 20.56527040132678 9.05607530887415
43 2 13.74393385364749 21.67440858027474 9.961682839761563
44 1 11.263825489079522 18.346994043430858 7.244860247099319
45 2 16.22404221821546 22.783546759222702 10.867290370648977
46 1 16.22404221821546 20.565270401326778 9.05607530887415
47 1 7.1303115481329105 20.93498312764277 15.395328025086052
48 1 4.650203183564943 19.825844948694808 14.489720494198638
49 1 10.4371227008902 22.413834032906717 13.584112963311222
50 1 7.957014336322234 23.522972211854675 14.489720494198638
51 1 10.4371227008902 24.632110390802637 15.395328025086053
52 1 7.957014336322233 21.304695853958755 12.678505432423808
53 2 8.783717124511554 21.67440858027474 9.961682839761563
54 2 8.783717124511554 23.892684938170664 11.772897901536393
55 1 15.397339430026136 24.632110390802637 15.395328025086052
56 1 12.917231065458168 23.522972211854675 14.48972049419864
57 2 13.74393385364749 23.892684938170664 11.772897901536393
58 1 11.263825489079522 25.001823117118626 12.678505432423808
59 1 13.74393385364749 26.110961296066588 13.584112963311224
60 2 11.263825489079522 22.783546759222702 10.867290370648979
61 1 16.224042218215455 27.220099475014546 14.489720494198636
62 1 16.224042218215455 25.001823117118622 12.678505432423808
63 1 8.783717124511554 26.110961296066588 13.58411296331122
64 1 8.783717124511554 28.329237653962508 15.395328025086052
65 1 13.74393385364749 28.329237653962508 15.39532802508605
66 1 11.263825489079522 27.220099475014546 14.489720494198638
67 1 0.0 2.2182763578959226 1.8112150617748295
68 2 2.480108364567968 1.109138178947961 0.9056075308874146
69 2 4.960216729135936 -4.440892098500626e-16 -1.9455644930253686e-16
70 2 0.0 0.0 0.0
71 1 8.881784197001252e-16 6.654829073687768 5.4336451853244885
72 1 2.480108364567968 3.327414536843884 2.7168225926622442
73 1 2.4801083645679682 5.545690894739806 4.528037654437074
74 1 4.960216729135936 4.436552715791845 3.622430123549659
75 1 8.881784197001252e-16 4.436552715791845 3.622430123549659
76 1 1.6534055763786455 5.915403621055794 1.811215061774829
77 2 7.440325093703903 1.109138178947961 0.9056075308874145
78 1 7.440325093703903 3.3274145368438837 2.7168225926622442
79 1 4.960216729135936 2.218276357895922 1.8112150617748293
80 2 4.133513940946613 4.806265442107832 0.9056075308874143
81 2 6.61362230551458 3.6971272631598704 -5.836693479076105e-16
82 2 1.6534055763786455 3.697127263159871 -3.8911289860507373e-16
83 1 1.6534055763786455 10.351956336847639 5.4336451853244885
84 1 7.440325093703903 5.545690894739806 4.528037654437074
85 1 4.960216729135936 6.654829073687768 5.4336451853244885
86 1 4.133513940946613 7.024541800003755 2.716822592662244
87 1 4.133513940946613 9.242818157899677 4.528037654437074
88 1 6.61362230551458 8.133679978951715 3.6224301235496585
89 1 1.6534055763786455 8.133679978951717 3.6224301235496585
90 1 3.3068111527572905 9.612530884215664 1.8112150617748288
91 2 9.093730670082548 4.806265442107832 0.9056075308874142
92 1 9.093730670082547 7.024541800003755 2.716822592662244
93 1 6.61362230551458 5.915403621055793 1.8112150617748288
94 2 5.7869195173252574 8.503392705267704 0.9056075308874139
95 2 8.267027881893226 7.394254526319742 -9.727822465126844e-16
96 2 3.3068111527572905 7.394254526319742 -7.782257972101475e-16
97 1 3.306811152757291 14.04908360000751 5.433645185324488
98 1 9.093730670082547 9.242818157899677 4.528037654437074
99 1 6.613622305514581 10.351956336847639 5.4336451853244885
100 1 5.786919517325258 10.721669063163628 2.7168225926622434
101 1 5.786919517325258 12.939945421059548 4.528037654437073
102 1 8.267027881893226 11.830807242111586 3.622430123549658
103 1 3.306811152757291 11.83080724211159 3.622430123549658
104 2 10.747136246461192 8.503392705267704 0.9056075308874137
105 1 10.747136246461192 10.721669063163628 2.7168225926622434
106 1 8.267027881893226 9.612530884215664 1.8112150617748286
107 1 9.300406367129881 24.12375539211816 16.300935555973467
108 1 10.747136246461192 12.939945421059548 4.528037654437073
109 1 8.267027881893226 14.04908360000751 5.433645185324488
110 1 9.300406367129881 28.560308107910004 19.923365679523123
111 1 11.780514731697847 25.23289357106612 17.20654308686088
112 1 11.78051473169785 27.451169928962045 19.01775814863571
113 1 14.260623096265817 26.342031750014083 18.112150617748295
114 1 9.300406367129881 26.342031750014083 18.112150617748295
115 1 10.953811943508526 27.82088265527803 16.300935555973464
116 1 16.740731460833782 25.23289357106612 17.20654308686088
117 1 14.260623096265817 24.12375539211816 16.300935555973464
118 2 11.78051473169785 29.669446286857966 20.82897321041054
119 1 10.953811943508526 32.257435371069874 19.923365679523123
120 1 16.740731460833782 27.45116992896204 19.017758148635707
121 2 16.740731460833786 29.669446286857966 20.82897321041054
122 1 14.260623096265817 28.560308107910004 19.923365679523126
123 1 13.433920308076495 28.930020834225992 17.20654308686088
124 1 13.433920308076495 31.148297192121916 19.01775814863571
125 1 15.914028672644463 30.039159013173954 18.112150617748295
126 1 10.953811943508526 30.039159013173954 18.112150617748295
127 1 12.607217519887172 31.5180099184379 16.300935555973464
128 1 18.39413703721243 28.930020834225992 17.20654308686088
129 1 15.914028672644463 27.82088265527803 16.300935555973464
130 2 13.433920308076495 33.36657355001783 20.82897321041054
131 1 12.607217519887172 35.95456263422974 19.923365679523123
132 1 18.39413703721243 31.148297192121913 19.017758148635707
133 2 18.39413703721243 33.36657355001783 20.82897321041054
134 1 15.914028672644463 32.257435371069874 19.923365679523126
135 1 15.08732588445514 32.62714809738586 17.20654308686088
136 1 15.08732588445514 34.84542445528178 19.01775814863571
137 1 17.56743424902311 33.73628627633382 18.112150617748295
138 1 12.607217519887172 33.73628627633382 18.112150617748295
139 1 20.047542613591077 32.62714809738586 17.20654308686088
140 1 17.56743424902311 31.5180099184379 16.300935555973464
141 2 15.08732588445514 37.063700813177704 20.82897321041054
142 1 20.047542613591077 34.84542445528178 19.017758148635707
143 2 20.047542613591077 37.063700813177704 20.82897321041054
144 1 17.56743424902311 35.95456263422974 19.923365679523126
