LAMMPS (29 Aug 2024 - Update 2)
#---------------------------------------------------------------------------------------------------
# Initilise important features of simulation
#---------------------------------------------------------------------------------------------------
units 		metal	# Use metals units (Ang, ps, eV, bar, etc.)
dimension 	3		# Run the simulation in three dimensions
boundary 	p p p	# Use periodic boundaries in all three dimensions
atom_style 	atomic	#
#box tilt large		# Allow larger than normal tilt factors

variable T_start equal 600
variable T_end equal 200
variable tstep equal 0.002
timestep ${tstep}
timestep 0.002

read_data   lammps.txt	# Read in atom coordinates from a file
Reading data file ...
  triclinic box = (0 0 0) to (9.9204335 11.091382 20.734581) with tilt (4.9602167 9.3004064 41.869966)
WARNING: Triclinic box skew is large. LAMMPS will run inefficiently. (src/domain.cpp:221)
  1 by 1 by 1 MPI processor grid
  reading atoms ...
  144 atoms
  read_data CPU = 0.000 seconds

#---------------------------------------------------------------------------------------------------
# Define how the forces between the atoms will be modelled
#---------------------------------------------------------------------------------------------------
pair_style eam/alloy
pair_coeff * * Zope-Ti-Al-2003.eam.alloy.txt Al Al

#---------------------------------------------------------------------------------------------------
# Set behaviour of simulation
#---------------------------------------------------------------------------------------------------
group g_fixed type 2
36 atoms in group g_fixed
group g_other type 1
108 atoms in group g_other
fix f_freeze g_fixed setforce 0.0 0.0 0.0 	# Hold atoms of type 2 fixed in place
#fix f_constrain g_other setforce 0.0 0.0 NULL 	# All atoms of type 1 to move only in z direction

#---------------------------------------------------------------------------------------------------
# Specify what information to write out
#---------------------------------------------------------------------------------------------------
thermo_style custom step atoms temp pe ke etotal fmax
thermo_modify format 6 %20.10f
thermo 1000

#compute statom all stress/atom NULL
compute peatom all pe/atom
dump 1 all custom 100000 dump.* id type x y z c_peatom
dump_modify 1 first yes


#---------------------------------------------------------------------------------------------------
# Initial relaxation
#---------------------------------------------------------------------------------------------------
velocity all set 0.0 0.0 0.0

min_style 	cg
min_modify dmax 0.1
minimize 	0.0 1.0e-6 10000 100000
Neighbor list info ...
  update: every = 1 steps, delay = 0 steps, check = yes
  max neighbors/atom: 2000, page size: 100000
  master list distance cutoff = 8.724884
  ghost atom cutoff = 8.724884
  binsize = 4.362442, bins = 6 13 5
  1 neighbor lists, perpetual/occasional/extra = 1 0 0
  (1) pair eam/alloy, perpetual
      attributes: half, newton on
      pair build: half/bin/atomonly/newton/tri
      stencil: half/bin/3d/tri
      bin: standard
Per MPI rank memory allocation (min/avg/max) = 4.738 | 4.738 | 4.738 Mbytes
   Step        Atoms         Temp          PotEng         KinEng         TotEng          Fmax     
         0         144   0             -450.88302      0                  -450.8830177277  3.4658395    
        52         144   0             -473.89056      0                  -473.8905617733  9.7350394e-08
Loop time of 0.0109454 on 1 procs for 52 steps with 144 atoms

95.2% CPU use with 1 MPI tasks x no OpenMP threads

Minimization stats:
  Stopping criterion = force tolerance
  Energy initial, next-to-last, final = 
     -450.883017727693  -473.890561773248  -473.890561773252
  Force two-norm initial, final = 20.17785 6.1221036e-07
  Force max component initial, final = 3.4658395 9.7350394e-08
  Final line search alpha, max atom move = 1 9.7350394e-08
  Iterations, force evaluations = 52 96

MPI task timing breakdown:
Section |  min time  |  avg time  |  max time  |%varavg| %total
---------------------------------------------------------------
Pair    | 0.0095735  | 0.0095735  | 0.0095735  |   0.0 | 87.47
Neigh   | 0          | 0          | 0          |   0.0 |  0.00
Comm    | 0.00061596 | 0.00061596 | 0.00061596 |   0.0 |  5.63
Output  | 0          | 0          | 0          |   0.0 |  0.00
Modify  | 1.4584e-05 | 1.4584e-05 | 1.4584e-05 |   0.0 |  0.13
Other   |            | 0.0007413  |            |       |  6.77

Nlocal:            144 ave         144 max         144 min
Histogram: 1 0 0 0 0 0 0 0 0 0
Nghost:           3736 ave        3736 max        3736 min
Histogram: 1 0 0 0 0 0 0 0 0 0
Neighs:          12828 ave       12828 max       12828 min
Histogram: 1 0 0 0 0 0 0 0 0 0

Total # of neighbors = 12828
Ave neighs/atom = 89.083333
Neighbor list builds = 0
Dangerous builds = 0
#---------------------------------------------------------------------------------------------------
# Anneal boundary structures
#---------------------------------------------------------------------------------------------------
reset_timestep 100000
fix md g_other nvt temp ${T_start} ${T_end} $(100.0*v_tstep)
fix md g_other nvt temp 600 ${T_end} $(100.0*v_tstep)
fix md g_other nvt temp 600 200 $(100.0*v_tstep)
fix md g_other nvt temp 600 200 0.2000000000000000111

velocity all create ${T_start} 4928459 rot yes mom yes dist gaussian
velocity all create 600 4928459 rot yes mom yes dist gaussian
run 10000
Per MPI rank memory allocation (min/avg/max) = 4.994 | 4.994 | 4.994 Mbytes
   Step        Atoms         Temp          PotEng         KinEng         TotEng          Fmax     
    100000         144   600           -473.89056      11.09052           -462.8000413323  9.7350416e-08
    101000         144   544.49676     -465.70066      10.064587          -455.6360773699  1.7784166    
    102000         144   578.88866     -466.63477      10.700294          -455.9344724508  1.6616705    
    103000         144   500.96759     -466.86241      9.2599854          -457.6024247219  1.4173222    
    104000         144   508.24364     -468.17141      9.3944774          -458.7769300801  1.3895324    
    105000         144   495.40561     -468.668        9.1571768          -459.5108187585  1.185548     
    106000         144   423.34569     -469.67922      7.8252068          -461.8540136453  1.072572     
    107000         144   425.25661     -470.10184      7.8605285          -462.2413097406  1.2628425    
    108000         144   382.83082     -470.28847      7.0763217          -463.2121492280  1.2444052    
    109000         144   386.10907     -470.78304      7.1369176          -463.6461273858  0.99346001   
    110000         144   344.579       -471.6972       6.3692675          -465.3279358416  0.79527762   
Loop time of 0.950539 on 1 procs for 10000 steps with 144 atoms

Performance: 1817.916 ns/day, 0.013 hours/ns, 10520.345 timesteps/s, 1.515 Matom-step/s
99.4% CPU use with 1 MPI tasks x no OpenMP threads

MPI task timing breakdown:
Section |  min time  |  avg time  |  max time  |%varavg| %total
---------------------------------------------------------------
Pair    | 0.84875    | 0.84875    | 0.84875    |   0.0 | 89.29
Neigh   | 0.01337    | 0.01337    | 0.01337    |   0.0 |  1.41
Comm    | 0.064497   | 0.064497   | 0.064497   |   0.0 |  6.79
Output  | 9.0165e-05 | 9.0165e-05 | 9.0165e-05 |   0.0 |  0.01
Modify  | 0.010797   | 0.010797   | 0.010797   |   0.0 |  1.14
Other   |            | 0.01303    |            |       |  1.37

Nlocal:            144 ave         144 max         144 min
Histogram: 1 0 0 0 0 0 0 0 0 0
Nghost:           3710 ave        3710 max        3710 min
Histogram: 1 0 0 0 0 0 0 0 0 0
Neighs:          12612 ave       12612 max       12612 min
Histogram: 1 0 0 0 0 0 0 0 0 0

Total # of neighbors = 12612
Ave neighs/atom = 87.583333
Neighbor list builds = 26
Dangerous builds = 0
unfix md

#---------------------------------------------------------------------------------------------------
# Final relaxation
#---------------------------------------------------------------------------------------------------
velocity all set 0.0 0.0 0.0

min_style 	cg
min_modify dmax 0.1
minimize 	0.0 1.0e-6 10000 100000
Per MPI rank memory allocation (min/avg/max) = 6.119 | 6.119 | 6.119 Mbytes
   Step        Atoms         Temp          PotEng         KinEng         TotEng          Fmax     
    110000         144   0             -471.6972       0                  -471.6972033299  0.79527762   
    110049         144   0             -474.51463      0                  -474.5146341837  1.1686851e-07
Loop time of 0.0105384 on 1 procs for 49 steps with 144 atoms

97.2% CPU use with 1 MPI tasks x no OpenMP threads

Minimization stats:
  Stopping criterion = force tolerance
  Energy initial, next-to-last, final = 
     -471.697203329923   -474.51463418367  -474.514634183668
  Force two-norm initial, final = 5.2041055 6.8242837e-07
  Force max component initial, final = 0.79527762 1.1686851e-07
  Final line search alpha, max atom move = 1 1.1686851e-07
  Iterations, force evaluations = 49 97

MPI task timing breakdown:
Section |  min time  |  avg time  |  max time  |%varavg| %total
---------------------------------------------------------------
Pair    | 0.0092734  | 0.0092734  | 0.0092734  |   0.0 | 88.00
Neigh   | 0          | 0          | 0          |   0.0 |  0.00
Comm    | 0.00062563 | 0.00062563 | 0.00062563 |   0.0 |  5.94
Output  | 0          | 0          | 0          |   0.0 |  0.00
Modify  | 1.379e-05  | 1.379e-05  | 1.379e-05  |   0.0 |  0.13
Other   |            | 0.0006256  |            |       |  5.94

Nlocal:            144 ave         144 max         144 min
Histogram: 1 0 0 0 0 0 0 0 0 0
Nghost:           3744 ave        3744 max        3744 min
Histogram: 1 0 0 0 0 0 0 0 0 0
Neighs:          12623 ave       12623 max       12623 min
Histogram: 1 0 0 0 0 0 0 0 0 0

Total # of neighbors = 12623
Ave neighs/atom = 87.659722
Neighbor list builds = 0
Dangerous builds = 0

Total wall time: 0:00:00
