ITEM: TIMESTEP
100000
ITEM: NUMBER OF ATOMS
144
ITEM: BOX BOUNDS xy xz yz pp pp pp
0.0000000000000000e+00 3.5961571286235539e+01 4.9602167291359365e+00
0.0000000000000000e+00 4.6029234426340381e+01 2.1080921098827730e+01
0.0000000000000000e+00 2.4734580741297954e+01 3.4937852636860775e+01
ITEM: ATOMS id type x y z c_peatom
70 2 0 0 0 -3.35587
82 2 1.65341 3.69713 0 -3.35363
69 2 4.96022 3.1364e-16 0 -3.35587
81 2 6.61362 3.69713 0 -3.35363
80 2 4.13351 4.80627 0.905608 -3.35683
86 1 4.12268 7.03978 2.84151 -3.37645
88 1 6.56592 8.13909 3.7909 -3.29837
93 1 6.6214 5.93733 1.89865 -3.38053
94 2 5.78692 8.50339 0.905608 -3.35099
95 2 8.26703 7.39425 0 -3.35363
76 1 11.5816 5.93733 1.89865 -3.38053
89 1 11.5261 8.13909 3.7909 -3.29837
91 2 9.09373 4.80627 0.905608 -3.35683
92 1 9.0829 7.03978 2.84151 -3.37645
96 2 13.2272 7.39425 0 -3.35363
104 2 10.7471 8.50339 0.905608 -3.35099
98 1 9.03901 9.19996 4.77686 -3.15525
87 1 13.9992 9.19996 4.77686 -3.15525
68 2 7.44033 12.2005 0.905608 -3.36177
100 1 5.76421 10.6862 2.81594 -3.36155
102 1 8.24014 11.7883 3.70122 -3.32021
106 1 8.25218 9.58945 1.90137 -3.37483
77 2 12.4005 12.2005 0.905608 -3.36177
79 1 9.91659 13.2922 1.86665 -3.38417
90 1 13.2124 9.58945 1.90137 -3.37483
103 1 13.2004 11.7883 3.70122 -3.32021
105 1 10.7244 10.6862 2.81594 -3.36155
108 1 10.7459 12.9304 4.6055 -3.14893
67 1 14.8768 13.2922 1.86665 -3.38417
101 1 15.7061 12.9304 4.6055 -3.14893
72 1 7.43673 14.4357 2.80009 -3.39233
74 1 9.91685 15.5269 3.66896 -3.32117
78 1 12.3969 14.4357 2.80009 -3.39233
84 1 12.4029 16.6528 4.71456 -3.13878
73 1 17.3631 16.6528 4.71456 -3.13878
75 1 14.8771 15.5269 3.66896 -3.32117
2 1 8.16924 11.9226 7.74567 -3.03322
99 1 6.53594 10.3379 5.78463 -3.01264
1 1 13.1295 11.9226 7.74567 -3.03322
9 1 10.6173 13.0486 8.71481 -3.14587
83 1 11.4962 10.3379 5.78463 -3.01264
3 1 15.5775 13.0486 8.71481 -3.14587
109 1 8.27168 14.0611 5.57991 -3.03034
5 1 11.4257 15.6301 7.5316 -3.01515
6 1 13.0606 14.1869 9.61747 -3.32097
17 1 11.3651 17.8389 9.5552 -3.30387
85 1 9.94919 17.5386 5.69068 -2.99486
97 1 13.2319 14.0611 5.57991 -3.03034
14 1 16.3859 15.6301 7.5316 -3.01515
15 1 13.8726 16.7764 8.54717 -3.1543
16 1 16.3253 17.8389 9.5552 -3.30387
71 1 14.9094 17.5386 5.69068 -2.99486
4 1 18.0208 14.1869 9.61747 -3.32097
20 1 18.8328 16.7764 8.54717 -3.1543
22 1 12.1987 20.4118 8.60566 -3.14713
35 1 14.7107 19.5191 7.62197 -2.98677
36 1 14.6933 21.5312 9.62966 -3.32107
44 1 17.1589 20.4118 8.60566 -3.14713
21 1 19.6709 19.5191 7.62197 -2.98677
41 1 19.6535 21.5312 9.62966 -3.32107
7 1 10.5565 15.2811 10.4869 -3.36193
8 2 13.0206 16.3598 11.4617 -3.37321
10 2 17.9808 16.3598 11.4617 -3.37321
13 1 15.5167 15.2811 10.4869 -3.36193
31 2 16.3274 20.0569 11.4617 -3.38252
32 2 13.8473 21.1661 12.3673 -3.36885
33 2 16.3274 22.2752 13.2729 -3.38635
34 1 13.8479 18.9373 10.4795 -3.38376
42 1 17.1709 22.6255 10.4962 -3.39721
18 1 18.8082 18.9373 10.4795 -3.38376
19 2 21.2876 20.0569 11.4617 -3.38252
37 2 21.2876 22.2752 13.2729 -3.38635
40 2 18.8075 21.1661 12.3673 -3.36885
46 1 22.1311 22.6255 10.4962 -3.39721
52 1 13.8305 23.4037 14.2384 -3.39721
53 2 14.674 23.754 11.4617 -3.38635
54 2 14.674 25.9723 13.2729 -3.38252
58 1 17.1534 27.0919 14.2551 -3.38376
60 2 17.1541 24.8632 12.3673 -3.36885
38 1 18.7907 23.4037 14.2384 -3.39721
43 2 19.6342 23.754 11.4617 -3.38635
45 2 22.1143 24.8632 12.3673 -3.36885
57 2 19.6342 25.9723 13.2729 -3.38252
62 1 22.1136 27.0919 14.2551 -3.38376
23 2 17.9808 29.6694 13.2729 -3.37321
26 2 15.5007 28.5603 12.3673 -3.35869
11 2 20.4609 28.5603 12.3673 -3.35869
30 1 20.4449 30.7482 14.2477 -3.36193
12 2 22.941 29.6694 13.2729 -3.37321
24 1 25.4051 30.7482 14.2477 -3.36193
49 1 16.3081 24.498 15.1049 -3.32107
51 1 16.2906 26.5101 17.1126 -2.98677
39 1 21.2683 24.498 15.1049 -3.32107
55 1 21.2508 26.5101 17.1126 -2.98677
56 1 18.8027 25.6174 16.1289 -3.14713
50 1 23.7629 25.6174 16.1289 -3.14713
25 1 17.9407 31.8423 15.1171 -3.32097
66 1 17.1288 29.2528 16.1874 -3.1543
59 1 19.6363 28.1903 15.1794 -3.30387
61 1 22.089 29.2528 16.1874 -3.1543
65 1 19.5756 30.3992 17.203 -3.01515
107 1 21.0522 28.4906 19.0439 -2.99486
27 1 22.9009 31.8423 15.1171 -3.32097
63 1 24.5965 28.1903 15.1794 -3.30387
64 1 24.5358 30.3992 17.203 -3.01515
115 1 22.7297 31.9681 19.1547 -3.03034
117 1 26.0124 28.4906 19.0439 -2.99486
129 1 27.6899 31.9681 19.1547 -3.03034
28 1 20.384 32.9806 16.0198 -3.14587
29 1 22.8321 34.1066 16.9889 -3.03322
48 1 25.3442 32.9806 16.0198 -3.14587
127 1 24.4654 35.6914 18.95 -3.01264
47 1 27.7923 34.1066 16.9889 -3.03322
140 1 29.4256 35.6914 18.95 -3.01264
114 1 21.0845 30.5023 21.0656 -3.32117
116 1 18.5985 29.3764 20.02 -3.13878
111 1 23.5587 29.3764 20.02 -3.13878
112 1 23.5646 31.5935 21.9345 -3.39233
113 1 26.0447 30.5023 21.0656 -3.32117
120 1 28.5248 31.5935 21.9345 -3.39233
110 1 21.0848 32.737 22.8679 -3.38417
128 1 20.2554 33.0988 20.1291 -3.14893
118 2 23.561 33.8287 23.829 -3.36177
119 1 22.7492 36.4398 22.8332 -3.37483
122 1 26.045 32.737 22.8679 -3.38417
123 1 25.2156 33.0988 20.1291 -3.14893
124 1 25.2371 35.3431 21.9186 -3.36155
126 1 22.7612 34.2409 21.0334 -3.32021
121 2 28.5212 33.8287 23.829 -3.36177
125 1 27.7214 34.2409 21.0334 -3.32021
132 1 30.1974 35.3431 21.9186 -3.36155
134 1 27.7094 36.4398 22.8332 -3.37483
139 1 21.9623 36.8293 19.9577 -3.15525
135 1 26.9226 36.8293 19.9577 -3.15525
130 2 25.2144 37.5258 23.829 -3.35099
131 1 24.38 40.0919 22.8359 -3.38053
136 1 26.8787 38.9895 21.8931 -3.37645
138 1 24.4354 37.8901 20.9437 -3.29837
141 2 26.8678 41.223 23.829 -3.35683
133 2 30.1747 37.5258 23.829 -3.35099
137 1 29.3957 37.8901 20.9437 -3.29837
144 1 29.3402 40.0919 22.8359 -3.38053
142 1 31.8389 38.9895 21.8931 -3.37645
143 2 31.8281 41.223 23.829 -3.35683
