ITEM: TIMESTEP
0
ITEM: NUMBER OF ATOMS
144
ITEM: BOX BOUNDS xy xz yz pp pp pp
0.0000000000000000e+00 3.1621381648241602e+01 4.9602167291359365e+00
0.0000000000000000e+00 5.5734193492135049e+01 1.6740731460833793e+01
0.0000000000000000e+00 2.4734580741297954e+01 4.4642811702655436e+01
ITEM: ATOMS id type x y z c_peatom
70 2 0 0 0 -3.37561
69 2 4.96022 4.00763e-16 0 -3.37561
81 2 6.61362 3.69713 0 -3.37561
82 2 11.5738 3.69713 0 -3.37561
80 2 4.13351 4.80627 0.905608 -3.37634
86 1 4.13351 7.02454 2.71682 -3.33281
87 1 4.13351 9.24282 4.52804 -3.02067
88 1 6.61362 8.13368 3.62243 -3.21381
93 1 6.61362 5.9154 1.81122 -3.39013
94 2 5.78692 8.50339 0.905608 -3.37634
95 2 8.26703 7.39425 0 -3.37561
76 1 11.5738 5.9154 1.81122 -3.39013
89 1 11.5738 8.13368 3.62243 -3.21381
91 2 9.09373 4.80627 0.905608 -3.37634
92 1 9.09373 7.02454 2.71682 -3.33281
96 2 13.2272 7.39425 0 -3.37561
98 1 9.09373 9.24282 4.52804 -3.02067
104 2 10.7471 8.50339 0.905608 -3.37634
68 2 7.44033 12.2005 0.905608 -3.37634
100 1 5.78692 10.7217 2.71682 -3.33723
101 1 5.78692 12.9399 4.52804 -3.03058
102 1 8.26703 11.8308 3.62243 -3.2467
106 1 8.26703 9.61253 1.81122 -3.3904
77 2 12.4005 12.2005 0.905608 -3.37634
79 1 9.92043 13.3097 1.81122 -3.39207
90 1 13.2272 9.61253 1.81122 -3.3904
103 1 13.2272 11.8308 3.62243 -3.2467
105 1 10.7471 10.7217 2.71682 -3.33723
108 1 10.7471 12.9399 4.52804 -3.03058
67 1 14.8807 13.3097 1.81122 -3.39207
72 1 7.44033 14.4188 2.71682 -3.33594
73 1 7.44033 16.6371 4.52804 -3.01844
74 1 9.92043 15.5279 3.62243 -3.22995
78 1 12.4005 14.4188 2.71682 -3.33594
84 1 12.4005 16.6371 4.52804 -3.01844
75 1 14.8807 15.5279 3.62243 -3.22995
9 1 8.37037 17.8849 8.74486 -3.2231
109 1 8.26703 14.0491 6.18365 -2.35467
1 1 10.8505 16.7757 7.83925 -2.61333
3 1 13.3306 17.8849 8.74486 -3.2231
85 1 9.92043 17.7462 6.18365 -2.45126
97 1 13.2272 14.0491 6.18365 -2.35467
2 1 15.8107 16.7757 7.83925 -2.61333
71 1 14.8807 17.7462 6.18365 -2.45126
5 1 9.19707 20.4728 7.83925 -3.01983
6 1 10.8505 18.994 9.65047 -3.36829
15 1 11.6772 21.582 8.74486 -3.09948
17 1 9.19707 22.6911 9.65047 -3.35768
99 1 11.5738 21.4433 6.18365 -2.75805
4 1 15.8107 18.994 9.65047 -3.36829
14 1 14.1573 20.4728 7.83925 -3.01983
16 1 14.1573 22.6911 9.65047 -3.35768
20 1 16.6374 21.582 8.74486 -3.09948
83 1 16.5341 21.4433 6.18365 -2.75805
35 1 12.5039 24.17 7.83925 -2.51884
36 1 12.5039 26.3882 9.65047 -3.34494
21 1 17.4641 24.17 7.83925 -2.51884
41 1 17.4641 26.3882 9.65047 -3.34494
44 1 14.984 25.2791 8.74486 -3.21751
22 1 19.9442 25.2791 8.74486 -3.21751
7 1 8.37037 20.1031 10.5561 -3.38223
8 2 10.8505 21.2123 11.4617 -3.37983
13 1 13.3306 20.1031 10.5561 -3.38223
10 2 15.8107 21.2123 11.4617 -3.37983
32 2 11.6772 26.0185 12.3673 -3.375
34 1 11.6772 23.8003 10.5561 -3.39115
18 1 16.6374 23.8003 10.5561 -3.39115
31 2 14.1573 24.9094 11.4617 -3.38037
33 2 14.1573 27.1277 13.2729 -3.3829
40 2 16.6374 26.0185 12.3673 -3.375
42 1 14.984 27.4974 10.5561 -3.40233
19 2 19.1175 24.9094 11.4617 -3.38037
37 2 19.1175 27.1277 13.2729 -3.3829
46 1 19.9442 27.4974 10.5561 -3.40233
52 1 11.6772 28.2368 14.1785 -3.40233
53 2 12.5039 28.6065 11.4617 -3.3829
54 2 12.5039 30.8248 13.2729 -3.38037
38 1 16.6374 28.2368 14.1785 -3.40233
43 2 17.4641 28.6065 11.4617 -3.3829
57 2 17.4641 30.8248 13.2729 -3.38037
58 1 14.984 31.9339 14.1785 -3.39115
60 2 14.984 29.7157 12.3673 -3.375
45 2 19.9442 29.7157 12.3673 -3.375
62 1 19.9442 31.9339 14.1785 -3.39115
23 2 15.8107 34.5219 13.2729 -3.37983
11 2 18.2908 33.4128 12.3673 -3.37571
12 2 20.7709 34.5219 13.2729 -3.37983
30 1 18.2908 35.6311 14.1785 -3.38223
24 1 23.251 35.6311 14.1785 -3.38223
26 2 23.251 33.4128 12.3673 -3.37571
50 1 11.6772 30.4551 15.9897 -3.21751
49 1 14.1573 29.3459 15.0841 -3.34494
51 1 14.1573 31.5642 16.8953 -2.51884
56 1 16.6374 30.4551 15.9897 -3.21751
39 1 19.1175 29.3459 15.0841 -3.34494
55 1 19.1175 31.5642 16.8953 -2.51884
25 1 15.8107 36.7402 15.0841 -3.36829
59 1 17.4641 33.0431 15.0841 -3.35768
65 1 17.4641 35.2614 16.8953 -3.01983
66 1 14.984 34.1522 15.9897 -3.09948
127 1 15.0873 34.2909 18.5509 -2.75805
27 1 20.7709 36.7402 15.0841 -3.36829
61 1 19.9442 34.1522 15.9897 -3.09948
63 1 22.4243 33.0431 15.0841 -3.35768
64 1 22.4243 35.2614 16.8953 -3.01983
140 1 20.0475 34.2909 18.5509 -2.75805
47 1 15.8107 38.9585 16.8953 -2.61333
107 1 16.7407 37.988 18.5509 -2.45126
28 1 18.2908 37.8493 15.9897 -3.2231
29 1 20.7709 38.9585 16.8953 -2.61333
115 1 18.3941 41.6851 18.5509 -2.35467
117 1 21.7009 37.988 18.5509 -2.45126
48 1 23.251 37.8493 15.9897 -3.2231
129 1 23.3544 41.6851 18.5509 -2.35467
114 1 16.7407 40.2063 21.1122 -3.22995
111 1 19.2208 39.0971 20.2065 -3.01844
112 1 19.2208 41.3154 22.0178 -3.33594
113 1 21.7009 40.2063 21.1122 -3.22995
116 1 24.1811 39.0971 20.2065 -3.01844
120 1 24.1811 41.3154 22.0178 -3.33594
110 1 16.7407 42.4245 22.9234 -3.39207
118 2 19.2208 43.5337 23.829 -3.37634
119 1 18.3941 46.1217 22.9234 -3.3904
122 1 21.7009 42.4245 22.9234 -3.39207
123 1 20.8742 42.7942 20.2065 -3.03058
124 1 20.8742 45.0125 22.0178 -3.33723
126 1 18.3941 43.9034 21.1122 -3.2467
121 2 24.1811 43.5337 23.829 -3.37634
125 1 23.3544 43.9034 21.1122 -3.2467
128 1 25.8345 42.7942 20.2065 -3.03058
132 1 25.8345 45.0125 22.0178 -3.33723
134 1 23.3544 46.1217 22.9234 -3.3904
130 2 20.8742 47.2308 23.829 -3.37634
131 1 20.0475 49.8188 22.9234 -3.39013
135 1 22.5277 46.4914 20.2065 -3.02067
136 1 22.5277 48.7097 22.0178 -3.33281
138 1 20.0475 47.6005 21.1122 -3.21381
141 2 22.5277 50.9279 23.829 -3.37634
133 2 25.8345 47.2308 23.829 -3.37634
137 1 25.0078 47.6005 21.1122 -3.21381
144 1 25.0078 49.8188 22.9234 -3.39013
139 1 27.4879 46.4914 20.2065 -3.02067
142 1 27.4879 48.7097 22.0178 -3.33281
143 2 27.4879 50.9279 23.829 -3.37634
