LAMMPS (29 Aug 2024 - Update 2)
#---------------------------------------------------------------------------------------------------
# Initilise important features of simulation
#---------------------------------------------------------------------------------------------------
units 		metal	# Use metals units (Ang, ps, eV, bar, etc.)
dimension 	3		# Run the simulation in three dimensions
boundary 	p p p	# Use periodic boundaries in all three dimensions
atom_style 	atomic	#
#box tilt large		# Allow larger than normal tilt factors

variable T_start equal 600
variable T_end equal 200
variable tstep equal 0.002
timestep ${tstep}
timestep 0.002

read_data   lammps.txt	# Read in atom coordinates from a file
Reading data file ...
  triclinic box = (0 0 0) to (9.9204335 11.091382 20.734581) with tilt (4.9602167 11.780515 44.642812)
WARNING: Triclinic box skew is large. LAMMPS will run inefficiently. (src/domain.cpp:221)
  1 by 1 by 1 MPI processor grid
  reading atoms ...
  144 atoms
  read_data CPU = 0.001 seconds

#---------------------------------------------------------------------------------------------------
# Define how the forces between the atoms will be modelled
#---------------------------------------------------------------------------------------------------
pair_style eam/alloy
pair_coeff * * Zope-Ti-Al-2003.eam.alloy.txt Al Al

#---------------------------------------------------------------------------------------------------
# Set behaviour of simulation
#---------------------------------------------------------------------------------------------------
group g_fixed type 2
36 atoms in group g_fixed
group g_other type 1
108 atoms in group g_other
fix f_freeze g_fixed setforce 0.0 0.0 0.0 	# Hold atoms of type 2 fixed in place
#fix f_constrain g_other setforce 0.0 0.0 NULL 	# All atoms of type 1 to move only in z direction

#---------------------------------------------------------------------------------------------------
# Specify what information to write out
#---------------------------------------------------------------------------------------------------
thermo_style custom step atoms temp pe ke etotal fmax
thermo_modify format 6 %20.10f
thermo 1000

#compute statom all stress/atom NULL
compute peatom all pe/atom
dump 1 all custom 100000 dump.* id type x y z c_peatom
dump_modify 1 first yes


#---------------------------------------------------------------------------------------------------
# Initial relaxation
#---------------------------------------------------------------------------------------------------
velocity all set 0.0 0.0 0.0

min_style 	cg
min_modify dmax 0.1
minimize 	0.0 1.0e-6 10000 100000
Neighbor list info ...
  update: every = 1 steps, delay = 0 steps, check = yes
  max neighbors/atom: 2000, page size: 100000
  master list distance cutoff = 8.724884
  ghost atom cutoff = 8.724884
  binsize = 4.362442, bins = 7 13 5
  1 neighbor lists, perpetual/occasional/extra = 1 0 0
  (1) pair eam/alloy, perpetual
      attributes: half, newton on
      pair build: half/bin/atomonly/newton/tri
      stencil: half/bin/3d/tri
      bin: standard
Per MPI rank memory allocation (min/avg/max) = 4.741 | 4.741 | 4.741 Mbytes
   Step        Atoms         Temp          PotEng         KinEng         TotEng          Fmax     
         0         144   0             -419.01062      0                  -419.0106197366  9.0039967    
        75         144   0             -468.43735      0                  -468.4373487500  1.1527417e-07
Loop time of 0.016225 on 1 procs for 75 steps with 144 atoms

97.4% CPU use with 1 MPI tasks x no OpenMP threads

Minimization stats:
  Stopping criterion = force tolerance
  Energy initial, next-to-last, final = 
     -419.010619736631  -468.437348750022   -468.43734875002
  Force two-norm initial, final = 39.667589 7.9862883e-07
  Force max component initial, final = 9.0039967 1.1527417e-07
  Final line search alpha, max atom move = 1 1.1527417e-07
  Iterations, force evaluations = 75 140

MPI task timing breakdown:
Section |  min time  |  avg time  |  max time  |%varavg| %total
---------------------------------------------------------------
Pair    | 0.013988   | 0.013988   | 0.013988   |   0.0 | 86.21
Neigh   | 0.00057904 | 0.00057904 | 0.00057904 |   0.0 |  3.57
Comm    | 0.00087312 | 0.00087312 | 0.00087312 |   0.0 |  5.38
Output  | 0          | 0          | 0          |   0.0 |  0.00
Modify  | 2.2334e-05 | 2.2334e-05 | 2.2334e-05 |   0.0 |  0.14
Other   |            | 0.0007628  |            |       |  4.70

Nlocal:            144 ave         144 max         144 min
Histogram: 1 0 0 0 0 0 0 0 0 0
Nghost:           3596 ave        3596 max        3596 min
Histogram: 1 0 0 0 0 0 0 0 0 0
Neighs:          12704 ave       12704 max       12704 min
Histogram: 1 0 0 0 0 0 0 0 0 0

Total # of neighbors = 12704
Ave neighs/atom = 88.222222
Neighbor list builds = 1
Dangerous builds = 0
#---------------------------------------------------------------------------------------------------
# Anneal boundary structures
#---------------------------------------------------------------------------------------------------
reset_timestep 100000
fix md g_other nvt temp ${T_start} ${T_end} $(100.0*v_tstep)
fix md g_other nvt temp 600 ${T_end} $(100.0*v_tstep)
fix md g_other nvt temp 600 200 $(100.0*v_tstep)
fix md g_other nvt temp 600 200 0.2000000000000000111

velocity all create ${T_start} 4928459 rot yes mom yes dist gaussian
velocity all create 600 4928459 rot yes mom yes dist gaussian
run 10000
Per MPI rank memory allocation (min/avg/max) = 4.998 | 4.998 | 4.998 Mbytes
   Step        Atoms         Temp          PotEng         KinEng         TotEng          Fmax     
    100000         144   600           -468.43735      11.09052           -457.3468283090  1.1527418e-07
    101000         144   546.11409     -460.01488      10.094482          -449.9204007939  1.5691329    
    102000         144   570.38068     -460.50771      10.543031          -449.9646796398  1.6628013    
    103000         144   523.81552     -460.75181      9.6823113          -451.0695007192  1.1856145    
    104000         144   513.3092      -462.80589      9.4881103          -453.3177797378  1.3264243    
    105000         144   433.69548     -462.93564      8.0165143          -454.9191274073  1.3024617    
    106000         144   425.93824     -464.00055      7.873128           -456.1274186506  1.1067299    
    107000         144   445.35139     -464.31879      8.2319645          -456.0868249408  1.0716827    
    108000         144   414.85648     -465.15027      7.6682904          -457.4819751519  1.0569215    
    109000         144   345.74979     -465.44188      6.3909084          -459.0509761295  1.3707829    
    110000         144   324.86538     -466.26834      6.0048769          -460.2634624475  0.84969285   
Loop time of 1.00847 on 1 procs for 10000 steps with 144 atoms

Performance: 1713.487 ns/day, 0.014 hours/ns, 9916.011 timesteps/s, 1.428 Matom-step/s
98.8% CPU use with 1 MPI tasks x no OpenMP threads

MPI task timing breakdown:
Section |  min time  |  avg time  |  max time  |%varavg| %total
---------------------------------------------------------------
Pair    | 0.89304    | 0.89304    | 0.89304    |   0.0 | 88.55
Neigh   | 0.026971   | 0.026971   | 0.026971   |   0.0 |  2.67
Comm    | 0.063835   | 0.063835   | 0.063835   |   0.0 |  6.33
Output  | 6.946e-05  | 6.946e-05  | 6.946e-05  |   0.0 |  0.01
Modify  | 0.011613   | 0.011613   | 0.011613   |   0.0 |  1.15
Other   |            | 0.01294    |            |       |  1.28

Nlocal:            144 ave         144 max         144 min
Histogram: 1 0 0 0 0 0 0 0 0 0
Nghost:           3664 ave        3664 max        3664 min
Histogram: 1 0 0 0 0 0 0 0 0 0
Neighs:          12722 ave       12722 max       12722 min
Histogram: 1 0 0 0 0 0 0 0 0 0

Total # of neighbors = 12722
Ave neighs/atom = 88.347222
Neighbor list builds = 53
Dangerous builds = 0
unfix md

#---------------------------------------------------------------------------------------------------
# Final relaxation
#---------------------------------------------------------------------------------------------------
velocity all set 0.0 0.0 0.0

min_style 	cg
min_modify dmax 0.1
minimize 	0.0 1.0e-6 10000 100000
Per MPI rank memory allocation (min/avg/max) = 6.123 | 6.123 | 6.123 Mbytes
   Step        Atoms         Temp          PotEng         KinEng         TotEng          Fmax     
    110000         144   0             -466.26834      0                  -466.2683393297  0.84969285   
    110089         144   0             -468.83577      0                  -468.8357685568  1.6665254e-07
Loop time of 0.0189583 on 1 procs for 89 steps with 144 atoms

98.5% CPU use with 1 MPI tasks x no OpenMP threads

Minimization stats:
  Stopping criterion = force tolerance
  Energy initial, next-to-last, final = 
     -466.268339329704  -468.835768556809  -468.835768556808
  Force two-norm initial, final = 5.0427361 8.9318119e-07
  Force max component initial, final = 0.84969285 1.6665254e-07
  Final line search alpha, max atom move = 1 1.6665254e-07
  Iterations, force evaluations = 89 177

MPI task timing breakdown:
Section |  min time  |  avg time  |  max time  |%varavg| %total
---------------------------------------------------------------
Pair    | 0.017051   | 0.017051   | 0.017051   |   0.0 | 89.94
Neigh   | 0          | 0          | 0          |   0.0 |  0.00
Comm    | 0.0010958  | 0.0010958  | 0.0010958  |   0.0 |  5.78
Output  | 0          | 0          | 0          |   0.0 |  0.00
Modify  | 2.4162e-05 | 2.4162e-05 | 2.4162e-05 |   0.0 |  0.13
Other   |            | 0.0007869  |            |       |  4.15

Nlocal:            144 ave         144 max         144 min
Histogram: 1 0 0 0 0 0 0 0 0 0
Nghost:           3648 ave        3648 max        3648 min
Histogram: 1 0 0 0 0 0 0 0 0 0
Neighs:          12675 ave       12675 max       12675 min
Histogram: 1 0 0 0 0 0 0 0 0 0

Total # of neighbors = 12675
Ave neighs/atom = 88.020833
Neighbor list builds = 0
Dangerous builds = 0

Total wall time: 0:00:01
