ITEM: TIMESTEP
96
ITEM: NUMBER OF ATOMS
144
ITEM: BOX BOUNDS xy xz yz pp pp pp
0.0000000000000000e+00 4.0921788015371476e+01 4.9602167291359365e+00
0.0000000000000000e+00 5.7120616215819993e+01 2.6041137827963666e+01
0.0000000000000000e+00 2.1734580741297954e+01 4.6029234426340381e+01
ITEM: ATOMS id type x y z c_peatom
70 2 0 0 0 -3.37804
82 2 1.65341 3.69713 0 -3.35517
69 2 4.96022 4.12029e-16 0 -3.37804
81 2 6.61362 3.69713 0 -3.35517
80 2 4.13351 4.80627 0.905608 -3.32993
86 1 4.23217 6.92952 2.50608 -3.22934
88 1 6.66634 7.99113 3.37746 -3.2483
91 2 9.09373 4.80627 0.905608 -3.32993
92 1 9.19238 6.92952 2.50608 -3.22934
93 1 6.65346 5.7252 1.93464 -3.31098
94 2 5.78692 8.50339 0.905608 -3.31523
95 2 8.26703 7.39425 0 -3.35517
76 1 11.6137 5.7252 1.93464 -3.31098
89 1 11.6266 7.99113 3.37746 -3.2483
96 2 13.2272 7.39425 0 -3.35517
104 2 10.7471 8.50339 0.905608 -3.31523
68 2 7.44033 12.2005 0.905608 -3.34269
100 1 5.81954 10.6123 2.63797 -3.32748
102 1 8.29189 11.5519 3.61325 -3.33087
106 1 8.28164 9.5786 1.70382 -3.37267
77 2 12.4005 12.2005 0.905608 -3.34269
90 1 13.2419 9.5786 1.70382 -3.37267
103 1 13.2521 11.5519 3.61325 -3.33087
105 1 10.7798 10.6123 2.63797 -3.32748
108 1 10.7841 12.5269 4.5287 -3.31581
101 1 15.7443 12.5269 4.5287 -3.31581
72 1 7.31202 14.2001 2.76086 -3.2805
109 1 8.33984 13.3238 5.65024 -3.3299
74 1 9.5722 15.3579 3.73385 -3.32722
78 1 12.2722 14.2001 2.76086 -3.2805
79 1 9.85544 13.2514 1.82765 -3.35939
84 1 11.8563 15.5849 5.07904 -3.16492
97 1 13.3001 13.3238 5.65024 -3.3299
67 1 14.8157 13.2514 1.82765 -3.35939
73 1 16.8166 15.5849 5.07904 -3.16492
75 1 14.5324 15.3579 3.73385 -3.32722
98 1 14.1452 20.0667 4.30332 -3.26805
87 1 19.1054 20.0667 4.30332 -3.26805
2 1 10.7762 18.1699 6.02094 -3.32105
35 1 10.8196 13.8566 6.79842 -3.02708
1 1 15.7364 18.1699 6.02094 -3.32105
21 1 15.7799 13.8566 6.79842 -3.02708
7 1 13.0687 20.8811 9.12505 -3.33973
9 1 13.1765 18.8718 7.27182 -3.32489
85 1 18.225 17.657 4.89531 -3.04694
99 1 11.6207 20.8472 5.35108 -3.28376
3 1 18.1367 18.8718 7.27182 -3.32489
5 1 14.0456 21.6251 6.41806 -3.28911
6 1 15.5991 19.8402 8.17319 -3.33086
8 2 15.5007 21.9055 9.96168 -3.38177
13 1 18.0289 20.8811 9.12505 -3.33973
71 1 13.2648 17.657 4.89531 -3.04694
83 1 16.5809 20.8472 5.35108 -3.28376
4 1 20.5593 19.8402 8.17319 -3.33086
10 2 20.4609 21.9055 9.96168 -3.38177
14 1 19.0058 21.6251 6.41806 -3.28911
15 1 16.4925 22.4847 7.38426 -3.26345
17 1 13.9186 23.5321 8.27705 -3.2823
22 1 9.34764 15.9291 6.64696 -3.16767
34 1 16.398 24.5388 9.24933 -3.22884
16 1 18.8788 23.5321 8.27705 -3.2823
18 1 21.3582 24.5388 9.24933 -3.22884
20 1 21.4527 22.4847 7.38426 -3.26345
31 2 18.8075 25.6026 9.96168 -3.31246
44 1 14.3079 15.9291 6.64696 -3.16767
19 2 23.7677 25.6026 9.96168 -3.31246
36 1 16.957 27.2096 8.0455 -3.32325
53 2 17.1541 29.2997 9.96168 -3.35506
41 1 21.9172 27.2096 8.0455 -3.32325
42 1 19.5809 28.2672 9.07812 -3.29279
43 2 22.1143 29.2997 9.96168 -3.35506
46 1 24.5411 28.2672 9.07812 -3.29279
32 2 16.3274 26.7117 10.8673 -3.3324
52 1 16.3807 28.8535 12.6565 -3.29279
33 2 18.8075 27.8209 11.7729 -3.35506
38 1 21.3409 28.8535 12.6565 -3.29279
40 2 21.2876 26.7117 10.8673 -3.3324
49 1 19.0046 29.9111 13.6891 -3.32325
60 2 19.6342 30.4089 10.8673 -3.3324
37 2 23.7677 27.8209 11.7729 -3.35506
39 1 23.9648 29.9111 13.6891 -3.32325
45 2 24.5944 30.4089 10.8673 -3.3324
54 2 17.1541 31.518 11.7729 -3.31246
56 1 26.6139 41.1915 15.0876 -3.16767
57 2 22.1143 31.518 11.7729 -3.31246
58 1 19.5636 32.5818 12.4852 -3.22884
59 1 22.0429 33.5886 13.4575 -3.2823
66 1 19.4691 34.6359 14.3503 -3.26345
11 2 22.941 34.106 10.8673 -3.32028
50 1 31.5741 41.1915 15.0876 -3.16767
61 1 24.4293 34.6359 14.3503 -3.26345
62 1 24.5238 32.5818 12.4852 -3.22884
63 1 27.0032 33.5886 13.4575 -3.2823
26 2 27.9012 34.106 10.8673 -3.32028
23 2 20.4609 35.2151 11.7729 -3.38177
25 1 20.3625 37.2804 13.5614 -3.33086
65 1 21.916 35.4956 15.3165 -3.28911
12 2 25.4211 35.2151 11.7729 -3.38177
27 1 25.3227 37.2804 13.5614 -3.33086
28 1 22.7851 38.2489 14.4628 -3.32489
30 1 22.8929 36.2396 12.6095 -3.33973
64 1 26.8762 35.4956 15.3165 -3.28911
24 1 27.8531 36.2396 12.6095 -3.33973
48 1 27.7453 38.2489 14.4628 -3.32489
29 1 25.1854 38.9507 15.7136 -3.32105
51 1 25.1419 43.2641 14.9362 -3.02708
47 1 30.1456 38.9507 15.7136 -3.32105
55 1 30.1021 43.2641 14.9362 -3.02708
139 1 21.8163 37.0539 17.4313 -3.26805
107 1 27.657 39.4636 16.8393 -3.04694
127 1 24.3409 36.2734 16.3835 -3.28376
135 1 26.7766 37.0539 17.4313 -3.26805
117 1 22.6968 39.4636 16.8393 -3.04694
140 1 29.3011 36.2734 16.3835 -3.28376
110 1 26.1061 43.8693 19.9069 -3.35939
114 1 26.3894 41.7627 18.0007 -3.32722
116 1 24.1052 41.5357 16.6555 -3.16492
111 1 29.0655 41.5357 16.6555 -3.16492
112 1 28.6495 42.9205 18.9737 -3.2805
113 1 31.3496 41.7627 18.0007 -3.32722
115 1 27.6217 43.7969 16.0843 -3.3299
122 1 31.0663 43.8693 19.9069 -3.35939
120 1 33.6098 42.9205 18.9737 -3.2805
129 1 32.582 43.7969 16.0843 -3.3299
128 1 25.1774 44.5937 17.2059 -3.31581
118 2 28.5212 44.9201 20.829 -3.34269
119 1 27.6799 47.542 20.0308 -3.37267
123 1 30.1377 44.5937 17.2059 -3.31581
124 1 30.142 46.5084 19.0966 -3.32748
126 1 27.6697 45.5687 18.1213 -3.33087
121 2 33.4815 44.9201 20.829 -3.34269
125 1 32.6299 45.5687 18.1213 -3.33087
132 1 35.1022 46.5084 19.0966 -3.32748
134 1 32.6402 47.542 20.0308 -3.37267
130 2 30.1747 48.6172 20.829 -3.31523
131 1 29.3081 51.3954 19.7999 -3.31098
138 1 29.2952 49.1295 18.3571 -3.2483
133 2 35.1349 48.6172 20.829 -3.31523
136 1 31.7294 50.1911 19.2285 -3.22934
137 1 34.2554 49.1295 18.3571 -3.2483
141 2 31.8281 52.3144 20.829 -3.32993
144 1 34.2683 51.3954 19.7999 -3.31098
142 1 36.6896 50.1911 19.2285 -3.22934
143 2 36.7883 52.3144 20.829 -3.32993
