LAMMPS (29 Aug 2024 - Update 2)
#---------------------------------------------------------------------------------------------------
# Initilise important features of simulation
#---------------------------------------------------------------------------------------------------
units 		metal	# Use metals units (Ang, ps, eV, bar, etc.)
dimension 	3		# Run the simulation in three dimensions
boundary 	p p p	# Use periodic boundaries in all three dimensions
atom_style 	atomic	#
#box tilt large		# Allow larger than normal tilt factors

variable T_start equal 600
variable T_end equal 200
variable tstep equal 0.002
timestep ${tstep}
timestep 0.002

read_data   lammps.txt	# Read in atom coordinates from a file
Reading data file ...
  triclinic box = (0 0 0) to (9.9204335 11.091382 22.734581) with tilt (4.9602167 5.5802438 36.324275)
WARNING: Triclinic box skew is large. LAMMPS will run inefficiently. (src/domain.cpp:221)
  1 by 1 by 1 MPI processor grid
  reading atoms ...
  144 atoms
  read_data CPU = 0.001 seconds

#---------------------------------------------------------------------------------------------------
# Define how the forces between the atoms will be modelled
#---------------------------------------------------------------------------------------------------
pair_style eam/alloy
pair_coeff * * Zope-Ti-Al-2003.eam.alloy.txt Al Al

#---------------------------------------------------------------------------------------------------
# Set behaviour of simulation
#---------------------------------------------------------------------------------------------------
group g_fixed type 2
36 atoms in group g_fixed
group g_other type 1
108 atoms in group g_other
fix f_freeze g_fixed setforce 0.0 0.0 0.0 	# Hold atoms of type 2 fixed in place
#fix f_constrain g_other setforce 0.0 0.0 NULL 	# All atoms of type 1 to move only in z direction

#---------------------------------------------------------------------------------------------------
# Specify what information to write out
#---------------------------------------------------------------------------------------------------
thermo_style custom step atoms temp pe ke etotal fmax
thermo_modify format 6 %20.10f
thermo 1000

#compute statom all stress/atom NULL
compute peatom all pe/atom
dump 1 all custom 100000 dump.* id type x y z c_peatom
dump_modify 1 first yes


#---------------------------------------------------------------------------------------------------
# Initial relaxation
#---------------------------------------------------------------------------------------------------
velocity all set 0.0 0.0 0.0

min_style 	cg
min_modify dmax 0.1
minimize 	0.0 1.0e-6 10000 100000
Neighbor list info ...
  update: every = 1 steps, delay = 0 steps, check = yes
  max neighbors/atom: 2000, page size: 100000
  master list distance cutoff = 8.724884
  ghost atom cutoff = 8.724884
  binsize = 4.362442, bins = 5 11 6
  1 neighbor lists, perpetual/occasional/extra = 1 0 0
  (1) pair eam/alloy, perpetual
      attributes: half, newton on
      pair build: half/bin/atomonly/newton/tri
      stencil: half/bin/3d/tri
      bin: standard
Per MPI rank memory allocation (min/avg/max) = 4.701 | 4.701 | 4.701 Mbytes
   Step        Atoms         Temp          PotEng         KinEng         TotEng          Fmax     
         0         144   0             -465.15608      0                  -465.1560762523  2.5505627    
       100         144   0             -475.59815      0                  -475.5981542729  1.6577556e-07
Loop time of 0.0190752 on 1 procs for 100 steps with 144 atoms

98.5% CPU use with 1 MPI tasks x no OpenMP threads

Minimization stats:
  Stopping criterion = force tolerance
  Energy initial, next-to-last, final = 
     -465.156076252329  -475.598154272878  -475.598154272879
  Force two-norm initial, final = 12.261675 9.9812177e-07
  Force max component initial, final = 2.5505627 1.6577556e-07
  Final line search alpha, max atom move = 1 1.6577556e-07
  Iterations, force evaluations = 100 193

MPI task timing breakdown:
Section |  min time  |  avg time  |  max time  |%varavg| %total
---------------------------------------------------------------
Pair    | 0.017247   | 0.017247   | 0.017247   |   0.0 | 90.41
Neigh   | 0          | 0          | 0          |   0.0 |  0.00
Comm    | 0.0010692  | 0.0010692  | 0.0010692  |   0.0 |  5.61
Output  | 0          | 0          | 0          |   0.0 |  0.00
Modify  | 3.4252e-05 | 3.4252e-05 | 3.4252e-05 |   0.0 |  0.18
Other   |            | 0.0007252  |            |       |  3.80

Nlocal:            144 ave         144 max         144 min
Histogram: 1 0 0 0 0 0 0 0 0 0
Nghost:           3112 ave        3112 max        3112 min
Histogram: 1 0 0 0 0 0 0 0 0 0
Neighs:          11792 ave       11792 max       11792 min
Histogram: 1 0 0 0 0 0 0 0 0 0

Total # of neighbors = 11792
Ave neighs/atom = 81.888889
Neighbor list builds = 0
Dangerous builds = 0
#---------------------------------------------------------------------------------------------------
# Anneal boundary structures
#---------------------------------------------------------------------------------------------------
reset_timestep 100000
fix md g_other nvt temp ${T_start} ${T_end} $(100.0*v_tstep)
fix md g_other nvt temp 600 ${T_end} $(100.0*v_tstep)
fix md g_other nvt temp 600 200 $(100.0*v_tstep)
fix md g_other nvt temp 600 200 0.2000000000000000111

velocity all create ${T_start} 4928459 rot yes mom yes dist gaussian
velocity all create 600 4928459 rot yes mom yes dist gaussian
run 10000
Per MPI rank memory allocation (min/avg/max) = 4.958 | 4.958 | 4.958 Mbytes
   Step        Atoms         Temp          PotEng         KinEng         TotEng          Fmax     
    100000         144   600           -475.59815      11.09052           -464.5076338319  1.6577555e-07
    101000         144   551.18674     -467.65375      10.188246          -457.4655013177  1.4854671    
    102000         144   576.29389     -467.79683      10.652332          -457.1445001552  1.38064      
    103000         144   526.97554     -469.56092      9.7407216          -459.8201991019  1.2778701    
    104000         144   502.51014     -470.33751      9.2884984          -461.0490156115  1.0956716    
    105000         144   485.87446     -470.70022      8.981001           -461.7192149714  1.0331968    
    106000         144   444.04634     -471.77651      8.2078418          -463.5686656390  1.2498345    
    107000         144   409.39046     -472.56729      7.5672555          -465.0000379209  0.85498645   
    108000         144   394.54171     -472.54825      7.2927881          -465.2554588269  0.970799     
    109000         144   384.38095     -473.57189      7.1049746          -466.4669115648  0.85645106   
    110000         144   341.91025     -473.57191      6.3199376          -467.2519734687  0.78458203   
Loop time of 0.954507 on 1 procs for 10000 steps with 144 atoms

Performance: 1810.359 ns/day, 0.013 hours/ns, 10476.614 timesteps/s, 1.509 Matom-step/s
97.9% CPU use with 1 MPI tasks x no OpenMP threads

MPI task timing breakdown:
Section |  min time  |  avg time  |  max time  |%varavg| %total
---------------------------------------------------------------
Pair    | 0.83131    | 0.83131    | 0.83131    |   0.0 | 87.09
Neigh   | 0.042275   | 0.042275   | 0.042275   |   0.0 |  4.43
Comm    | 0.055858   | 0.055858   | 0.055858   |   0.0 |  5.85
Output  | 7.8832e-05 | 7.8832e-05 | 7.8832e-05 |   0.0 |  0.01
Modify  | 0.012033   | 0.012033   | 0.012033   |   0.0 |  1.26
Other   |            | 0.01295    |            |       |  1.36

Nlocal:            144 ave         144 max         144 min
Histogram: 1 0 0 0 0 0 0 0 0 0
Nghost:           3068 ave        3068 max        3068 min
Histogram: 1 0 0 0 0 0 0 0 0 0
Neighs:          11627 ave       11627 max       11627 min
Histogram: 1 0 0 0 0 0 0 0 0 0

Total # of neighbors = 11627
Ave neighs/atom = 80.743056
Neighbor list builds = 81
Dangerous builds = 0
unfix md

#---------------------------------------------------------------------------------------------------
# Final relaxation
#---------------------------------------------------------------------------------------------------
velocity all set 0.0 0.0 0.0

min_style 	cg
min_modify dmax 0.1
minimize 	0.0 1.0e-6 10000 100000
Per MPI rank memory allocation (min/avg/max) = 6.083 | 6.083 | 6.083 Mbytes
   Step        Atoms         Temp          PotEng         KinEng         TotEng          Fmax     
    110000         144   0             -473.57191      0                  -473.5719111101  0.78458203   
    110045         144   0             -477.09203      0                  -477.0920319990  1.3273342e-07
Loop time of 0.00952704 on 1 procs for 45 steps with 144 atoms

95.5% CPU use with 1 MPI tasks x no OpenMP threads

Minimization stats:
  Stopping criterion = force tolerance
  Energy initial, next-to-last, final = 
     -473.571911110073  -477.092031998965  -477.092031998967
  Force two-norm initial, final = 5.3741779 7.0049612e-07
  Force max component initial, final = 0.78458203 1.3273342e-07
  Final line search alpha, max atom move = 1 1.3273342e-07
  Iterations, force evaluations = 45 88

MPI task timing breakdown:
Section |  min time  |  avg time  |  max time  |%varavg| %total
---------------------------------------------------------------
Pair    | 0.0084229  | 0.0084229  | 0.0084229  |   0.0 | 88.41
Neigh   | 0          | 0          | 0          |   0.0 |  0.00
Comm    | 0.00047274 | 0.00047274 | 0.00047274 |   0.0 |  4.96
Output  | 0          | 0          | 0          |   0.0 |  0.00
Modify  | 1.8959e-05 | 1.8959e-05 | 1.8959e-05 |   0.0 |  0.20
Other   |            | 0.0006125  |            |       |  6.43

Nlocal:            144 ave         144 max         144 min
Histogram: 1 0 0 0 0 0 0 0 0 0
Nghost:           3062 ave        3062 max        3062 min
Histogram: 1 0 0 0 0 0 0 0 0 0
Neighs:          11600 ave       11600 max       11600 min
Histogram: 1 0 0 0 0 0 0 0 0 0

Total # of neighbors = 11600
Ave neighs/atom = 80.555556
Neighbor list builds = 0
Dangerous builds = 0

Total wall time: 0:00:00
