LAMMPS (29 Aug 2024 - Update 2)
#---------------------------------------------------------------------------------------------------
# Initilise important features of simulation
#---------------------------------------------------------------------------------------------------
units 		metal	# Use metals units (Ang, ps, eV, bar, etc.)
dimension 	3		# Run the simulation in three dimensions
boundary 	p p p	# Use periodic boundaries in all three dimensions
atom_style 	atomic	#
#box tilt large		# Allow larger than normal tilt factors

variable T_start equal 600
variable T_end equal 200
variable tstep equal 0.002
timestep ${tstep}
timestep 0.002

read_data   lammps.txt	# Read in atom coordinates from a file
Reading data file ...
  triclinic box = (0 0 0) to (9.9204335 11.091382 24.734581) with tilt (4.9602167 29.141273 47.415657)
WARNING: Triclinic box skew is large. LAMMPS will run inefficiently. (src/domain.cpp:221)
  1 by 1 by 1 MPI processor grid
  reading atoms ...
  144 atoms
  read_data CPU = 0.001 seconds

#---------------------------------------------------------------------------------------------------
# Define how the forces between the atoms will be modelled
#---------------------------------------------------------------------------------------------------
pair_style eam/alloy
pair_coeff * * Zope-Ti-Al-2003.eam.alloy.txt Al Al

#---------------------------------------------------------------------------------------------------
# Set behaviour of simulation
#---------------------------------------------------------------------------------------------------
group g_fixed type 2
36 atoms in group g_fixed
group g_other type 1
108 atoms in group g_other
fix f_freeze g_fixed setforce 0.0 0.0 0.0 	# Hold atoms of type 2 fixed in place
#fix f_constrain g_other setforce 0.0 0.0 NULL 	# All atoms of type 1 to move only in z direction

#---------------------------------------------------------------------------------------------------
# Specify what information to write out
#---------------------------------------------------------------------------------------------------
thermo_style custom step atoms temp pe ke etotal fmax
thermo_modify format 6 %20.10f
thermo 1000

#compute statom all stress/atom NULL
compute peatom all pe/atom
dump 1 all custom 100000 dump.* id type x y z c_peatom
dump_modify 1 first yes


#---------------------------------------------------------------------------------------------------
# Initial relaxation
#---------------------------------------------------------------------------------------------------
velocity all set 0.0 0.0 0.0

min_style 	cg
min_modify dmax 0.1
minimize 	0.0 1.0e-6 10000 100000
Neighbor list info ...
  update: every = 1 steps, delay = 0 steps, check = yes
  max neighbors/atom: 2000, page size: 100000
  master list distance cutoff = 8.724884
  ghost atom cutoff = 8.724884
  binsize = 4.362442, bins = 11 14 6
  1 neighbor lists, perpetual/occasional/extra = 1 0 0
  (1) pair eam/alloy, perpetual
      attributes: half, newton on
      pair build: half/bin/atomonly/newton/tri
      stencil: half/bin/3d/tri
      bin: standard
Per MPI rank memory allocation (min/avg/max) = 4.689 | 4.689 | 4.689 Mbytes
   Step        Atoms         Temp          PotEng         KinEng         TotEng          Fmax     
         0         144   0             -456.68441      0                  -456.6844148683  3.682076     
       110         144   0             -470.51693      0                  -470.5169347578  1.6735531e-07
Loop time of 0.0180743 on 1 procs for 110 steps with 144 atoms

99.5% CPU use with 1 MPI tasks x no OpenMP threads

Minimization stats:
  Stopping criterion = force tolerance
  Energy initial, next-to-last, final = 
     -456.684414868323  -470.516934757831  -470.516934757829
  Force two-norm initial, final = 12.97935 9.1184028e-07
  Force max component initial, final = 3.682076 1.6735531e-07
  Final line search alpha, max atom move = 1 1.6735531e-07
  Iterations, force evaluations = 110 199

MPI task timing breakdown:
Section |  min time  |  avg time  |  max time  |%varavg| %total
---------------------------------------------------------------
Pair    | 0.015357   | 0.015357   | 0.015357   |   0.0 | 84.97
Neigh   | 0.00092229 | 0.00092229 | 0.00092229 |   0.0 |  5.10
Comm    | 0.001105   | 0.001105   | 0.001105   |   0.0 |  6.11
Output  | 0          | 0          | 0          |   0.0 |  0.00
Modify  | 2.9001e-05 | 2.9001e-05 | 2.9001e-05 |   0.0 |  0.16
Other   |            | 0.000661   |            |       |  3.66

Nlocal:            144 ave         144 max         144 min
Histogram: 1 0 0 0 0 0 0 0 0 0
Nghost:           3112 ave        3112 max        3112 min
Histogram: 1 0 0 0 0 0 0 0 0 0
Neighs:          10648 ave       10648 max       10648 min
Histogram: 1 0 0 0 0 0 0 0 0 0

Total # of neighbors = 10648
Ave neighs/atom = 73.944444
Neighbor list builds = 2
Dangerous builds = 0
#---------------------------------------------------------------------------------------------------
# Anneal boundary structures
#---------------------------------------------------------------------------------------------------
reset_timestep 100000
fix md g_other nvt temp ${T_start} ${T_end} $(100.0*v_tstep)
fix md g_other nvt temp 600 ${T_end} $(100.0*v_tstep)
fix md g_other nvt temp 600 200 $(100.0*v_tstep)
fix md g_other nvt temp 600 200 0.2000000000000000111

velocity all create ${T_start} 4928459 rot yes mom yes dist gaussian
velocity all create 600 4928459 rot yes mom yes dist gaussian
run 10000
Per MPI rank memory allocation (min/avg/max) = 4.967 | 4.967 | 4.967 Mbytes
   Step        Atoms         Temp          PotEng         KinEng         TotEng          Fmax     
    100000         144   600           -470.51693      11.09052           -459.4264143168  1.6735532e-07
    101000         144   571.59254     -462.51222      10.565431          -451.9467904298  1.3813333    
    102000         144   598.03305     -462.23964      11.054163          -451.1854752246  1.1483854    
    103000         144   541.22428     -463.30505      10.004098          -453.3009537099  1.065457     
    104000         144   497.82112     -464.02283      9.2018255          -454.8210061435  1.6801089    
    105000         144   475.60548     -464.19612      8.7911872          -455.4049353940  1.0404232    
    106000         144   419.90198     -465.0289       7.7615525          -457.2673513862  0.95620604   
    107000         144   402.22397     -465.81282      7.4347886          -458.3780321938  0.92352134   
    108000         144   380.50148     -466.63082      7.0332657          -459.5975511400  0.94806596   
    109000         144   347.43897     -466.8091       6.4221317          -460.3869668251  0.99352481   
    110000         144   346.4057      -468.13948      6.4030324          -461.7364487161  0.92927096   
Loop time of 0.870787 on 1 procs for 10000 steps with 144 atoms

Performance: 1984.411 ns/day, 0.012 hours/ns, 11483.860 timesteps/s, 1.654 Matom-step/s
99.9% CPU use with 1 MPI tasks x no OpenMP threads

MPI task timing breakdown:
Section |  min time  |  avg time  |  max time  |%varavg| %total
---------------------------------------------------------------
Pair    | 0.73582    | 0.73582    | 0.73582    |   0.0 | 84.50
Neigh   | 0.056205   | 0.056205   | 0.056205   |   0.0 |  6.45
Comm    | 0.055336   | 0.055336   | 0.055336   |   0.0 |  6.35
Output  | 4.9749e-05 | 4.9749e-05 | 4.9749e-05 |   0.0 |  0.01
Modify  | 0.010688   | 0.010688   | 0.010688   |   0.0 |  1.23
Other   |            | 0.01269    |            |       |  1.46

Nlocal:            144 ave         144 max         144 min
Histogram: 1 0 0 0 0 0 0 0 0 0
Nghost:           3145 ave        3145 max        3145 min
Histogram: 1 0 0 0 0 0 0 0 0 0
Neighs:          10567 ave       10567 max       10567 min
Histogram: 1 0 0 0 0 0 0 0 0 0

Total # of neighbors = 10567
Ave neighs/atom = 73.381944
Neighbor list builds = 124
Dangerous builds = 0
unfix md

#---------------------------------------------------------------------------------------------------
# Final relaxation
#---------------------------------------------------------------------------------------------------
velocity all set 0.0 0.0 0.0

min_style 	cg
min_modify dmax 0.1
minimize 	0.0 1.0e-6 10000 100000
Per MPI rank memory allocation (min/avg/max) = 6.093 | 6.093 | 6.093 Mbytes
   Step        Atoms         Temp          PotEng         KinEng         TotEng          Fmax     
    110000         144   0             -468.13948      0                  -468.1394811392  0.92927096   
    110077         144   0             -470.76548      0                  -470.7654813967  1.7619822e-07
Loop time of 0.0134516 on 1 procs for 77 steps with 144 atoms

99.0% CPU use with 1 MPI tasks x no OpenMP threads

Minimization stats:
  Stopping criterion = force tolerance
  Energy initial, next-to-last, final = 
     -468.139481139248  -470.765481396736  -470.765481396737
  Force two-norm initial, final = 4.1367634 9.1044043e-07
  Force max component initial, final = 0.92927096 1.7619822e-07
  Final line search alpha, max atom move = 1 1.7619822e-07
  Iterations, force evaluations = 77 152

MPI task timing breakdown:
Section |  min time  |  avg time  |  max time  |%varavg| %total
---------------------------------------------------------------
Pair    | 0.012012   | 0.012012   | 0.012012   |   0.0 | 89.30
Neigh   | 0          | 0          | 0          |   0.0 |  0.00
Comm    | 0.00082257 | 0.00082257 | 0.00082257 |   0.0 |  6.12
Output  | 0          | 0          | 0          |   0.0 |  0.00
Modify  | 2.3165e-05 | 2.3165e-05 | 2.3165e-05 |   0.0 |  0.17
Other   |            | 0.0005937  |            |       |  4.41

Nlocal:            144 ave         144 max         144 min
Histogram: 1 0 0 0 0 0 0 0 0 0
Nghost:           3154 ave        3154 max        3154 min
Histogram: 1 0 0 0 0 0 0 0 0 0
Neighs:          10577 ave       10577 max       10577 min
Histogram: 1 0 0 0 0 0 0 0 0 0

Total # of neighbors = 10577
Ave neighs/atom = 73.451389
Neighbor list builds = 0
Dangerous builds = 0

Total wall time: 0:00:00
