#Lammps coordinate file for CSL - Axis: [1 1 1]  Angle: (1, 3) -> 59.99999999999999  Plane indices: [0 1 1]  z-position: [4.9336451853244885 14.800935555973464]  Repeats: 1 1 (3, 3) (black, white)  Fixed: 2.228  Boundary equiv: True
144 atoms

2 atom types

0.0 9.920433458271871 xlo xhi
0.0 11.091381789479609 ylo yhi
0.0 19.734580741297954 zlo zhi
4.9602167291359365 11.780514731697853 28.00573901843602 xy xz yz

Atoms

1 1 8.370365730416893 8.457178614478204 5.339252716211904
2 1 13.330582459552826 8.457178614478202 5.339252716211904
3 1 10.850474094984861 9.566316793426164 6.24486024709932
4 1 13.330582459552826 10.675454972374126 7.150467777986734
5 1 16.637393612310117 12.154305877638073 5.339252716211904
6 1 8.370365730416893 10.675454972374126 7.150467777986734
7 1 5.8902573658489255 11.784593151322088 8.05607530887415
8 2 8.370365730416893 12.893731330270048 8.961682839761563
9 1 5.8902573658489255 9.566316793426166 6.244860247099319
10 2 13.330582459552826 12.893731330270048 8.961682839761563
11 2 10.850474094984861 14.002869509218009 9.867290370648979
12 2 13.330582459552828 15.11200768816597 10.772897901536393
13 1 10.850474094984861 11.784593151322088 8.05607530887415
14 1 11.67717688317418 12.154305877638073 5.339252716211904
15 1 9.197068518606216 13.263444056586035 6.244860247099319
16 1 11.677176883174182 14.372582235533997 7.150467777986734
17 1 16.637393612310117 14.372582235533995 7.150467777986734
18 1 14.157285247742152 15.481720414481957 8.05607530887415
19 2 16.63739361231012 16.590858593429918 8.961682839761563
20 1 14.157285247742148 13.263444056586035 6.24486024709932
21 1 14.983988035931475 15.851433140797944 5.339252716211903
22 1 17.464096400499443 16.960571319745906 6.244860247099318
23 2 8.370365730416893 15.11200768816597 10.772897901536393
24 1 5.890257365848926 16.221145867113933 11.678505432423808
25 1 8.370365730416893 17.330284046061895 12.584112963311222
26 2 5.890257365848926 14.00286950921801 9.867290370648979
27 1 13.33058245955283 17.330284046061895 12.584112963311222
28 1 10.850474094984861 18.439422225009853 13.489720494198638
29 1 13.33058245955283 19.548560403957815 14.395328025086053
30 1 10.850474094984861 16.221145867113933 11.678505432423808
31 2 11.677176883174184 16.590858593429918 8.961682839761563
32 2 9.197068518606216 17.69999677237788 9.867290370648979
33 2 11.677176883174184 18.80913495132584 10.772897901536393
34 1 9.197068518606216 15.48172041448196 8.05607530887415
35 1 10.023771306795538 15.851433140797944 5.339252716211903
36 1 10.023771306795538 18.069709498693868 7.150467777986734
37 2 16.63739361231012 18.80913495132584 10.772897901536393
38 1 14.157285247742152 19.918273130273803 11.678505432423808
39 1 16.63739361231012 21.027411309221765 12.584112963311224
40 2 14.157285247742152 17.69999677237788 9.867290370648979
41 1 14.983988035931475 18.069709498693864 7.150467777986734
42 1 12.503879671363507 19.17884767764183 8.05607530887415
43 2 14.983988035931475 20.28798585658979 8.961682839761563
44 1 12.503879671363507 16.960571319745906 6.244860247099319
45 2 17.464096400499443 21.39712403553775 9.867290370648977
46 1 17.464096400499443 19.178847677641826 8.05607530887415
47 1 8.370365730416895 19.54856040395782 14.395328025086052
48 1 5.890257365848927 18.439422225009857 13.489720494198638
49 1 11.677176883174184 21.027411309221765 12.584112963311222
50 1 9.197068518606219 22.136549488169724 13.489720494198638
51 1 11.677176883174184 23.245687667117686 14.395328025086053
52 1 9.197068518606217 19.918273130273803 11.678505432423808
53 2 10.023771306795538 20.28798585658979 8.961682839761563
54 2 10.023771306795538 22.506262214485712 10.772897901536393
55 1 16.63739361231012 23.245687667117686 14.395328025086052
56 1 14.157285247742152 22.136549488169724 13.48972049419864
57 2 14.983988035931475 22.506262214485712 10.772897901536393
58 1 12.503879671363507 23.615400393433674 11.678505432423808
59 1 14.983988035931475 24.724538572381636 12.584112963311224
60 2 12.503879671363507 21.39712403553775 9.867290370648979
61 1 17.46409640049944 25.833676751329595 13.489720494198636
62 1 17.46409640049944 23.61540039343367 11.678505432423808
63 1 10.023771306795538 24.724538572381636 12.58411296331122
64 1 10.023771306795538 26.942814930277557 14.395328025086052
65 1 14.983988035931475 26.942814930277557 14.39532802508605
66 1 12.503879671363507 25.833676751329595 13.489720494198638
67 1 0.0 2.2182763578959226 1.8112150617748293
68 2 2.480108364567968 1.109138178947961 0.9056075308874145
69 2 4.960216729135936 -4.440892098500626e-16 -2.220446049250313e-16
70 2 0.0 0.0 0.0
71 1 8.881784197001252e-16 6.654829073687768 4.9336451853244885
72 1 2.480108364567968 3.327414536843884 2.7168225926622442
73 1 2.4801083645679682 5.545690894739806 4.528037654437074
74 1 4.960216729135936 4.436552715791845 3.622430123549659
75 1 8.881784197001252e-16 4.436552715791845 3.622430123549659
76 1 1.6534055763786455 5.915403621055794 1.8112150617748293
77 2 7.440325093703903 1.109138178947961 0.9056075308874145
78 1 7.440325093703903 3.3274145368438837 2.7168225926622442
79 1 4.960216729135936 2.218276357895922 1.8112150617748293
80 2 4.133513940946613 4.806265442107832 0.9056075308874143
81 2 6.61362230551458 3.6971272631598704 -6.661338147750939e-16
82 2 1.6534055763786455 3.697127263159871 -4.440892098500626e-16
83 1 1.6534055763786455 10.351956336847639 4.9336451853244885
84 1 7.440325093703903 5.545690894739806 4.528037654437074
85 1 4.960216729135936 6.654829073687768 4.9336451853244885
86 1 4.133513940946613 7.024541800003755 2.7168225926622434
87 1 4.133513940946613 9.242818157899677 4.528037654437074
88 1 6.61362230551458 8.133679978951715 3.622430123549659
89 1 1.6534055763786455 8.133679978951717 3.622430123549659
90 1 3.3068111527572905 9.612530884215664 1.8112150617748288
91 2 9.093730670082548 4.806265442107832 0.9056075308874141
92 1 9.093730670082547 7.024541800003755 2.7168225926622434
93 1 6.61362230551458 5.915403621055793 1.8112150617748288
94 2 5.7869195173252574 8.503392705267704 0.9056075308874139
95 2 8.267027881893226 7.394254526319742 -9.992007221626409e-16
96 2 3.3068111527572905 7.394254526319742 -7.771561172376096e-16
97 1 3.306811152757291 14.04908360000751 4.933645185324488
98 1 9.093730670082547 9.242818157899677 4.528037654437074
99 1 6.613622305514581 10.351956336847639 4.9336451853244885
100 1 5.786919517325258 10.721669063163626 2.7168225926622434
101 1 5.786919517325258 12.939945421059548 4.528037654437073
102 1 8.267027881893226 11.830807242111586 3.622430123549658
103 1 3.306811152757291 11.830807242111588 3.622430123549658
104 2 10.747136246461192 8.503392705267704 0.9056075308874136
105 1 10.747136246461192 10.721669063163626 2.7168225926622434
106 1 8.267027881893226 9.612530884215664 1.8112150617748284
107 1 11.78051473169785 21.350909944748256 14.800935555973467
108 1 10.747136246461192 12.939945421059548 4.528037654437073
109 1 8.267027881893226 14.04908360000751 4.933645185324488
110 1 11.78051473169785 25.7874626605401 17.923365679523123
111 1 14.260623096265817 22.460048123696218 15.20654308686088
112 1 14.260623096265817 24.678324481592142 17.01775814863571
113 1 16.740731460833786 23.56918630264418 16.112150617748295
114 1 11.78051473169785 23.56918630264418 16.112150617748295
115 1 13.433920308076495 25.048037207908127 14.800935555973464
116 1 19.22083982540175 22.460048123696218 15.20654308686088
117 1 16.740731460833786 21.350909944748256 14.800935555973464
118 2 14.260623096265817 26.896600839488062 18.82897321041054
119 1 13.433920308076495 29.48458992369997 17.923365679523123
120 1 19.22083982540175 24.67832448159214 17.017758148635707
121 2 19.220839825401754 26.896600839488062 18.82897321041054
122 1 16.740731460833786 25.7874626605401 17.923365679523126
123 1 15.914028672644463 26.15717538685609 15.20654308686088
124 1 15.914028672644463 28.375451744752013 17.01775814863571
125 1 18.39413703721243 27.26631356580405 16.112150617748295
126 1 13.433920308076495 27.26631356580405 16.112150617748295
127 1 15.08732588445514 28.745164471067998 14.800935555973464
128 1 20.8742454017804 26.15717538685609 15.20654308686088
129 1 18.39413703721243 25.048037207908127 14.800935555973464
130 2 15.914028672644463 30.593728102647933 18.82897321041054
131 1 15.08732588445514 33.181717186859835 17.923365679523123
132 1 20.8742454017804 28.37545174475201 17.017758148635707
133 2 20.8742454017804 30.593728102647933 18.82897321041054
134 1 18.39413703721243 29.48458992369997 17.923365679523126
135 1 17.56743424902311 29.85430265001596 15.20654308686088
136 1 17.56743424902311 32.072579007911884 17.01775814863571
137 1 20.047542613591077 30.963440828963922 16.112150617748295
138 1 15.08732588445514 30.963440828963922 16.112150617748295
139 1 22.527650978159045 29.85430265001596 15.20654308686088
140 1 20.047542613591077 28.745164471067998 14.800935555973464
141 2 17.56743424902311 34.2908553658078 18.82897321041054
142 1 22.527650978159045 32.07257900791188 17.017758148635707
143 2 22.527650978159045 34.2908553658078 18.82897321041054
144 1 20.047542613591077 33.181717186859835 17.923365679523126
