LAMMPS (29 Aug 2024 - Update 2)
#---------------------------------------------------------------------------------------------------
# Initilise important features of simulation
#---------------------------------------------------------------------------------------------------
units 		metal	# Use metals units (Ang, ps, eV, bar, etc.)
dimension 	3		# Run the simulation in three dimensions
boundary 	p p p	# Use periodic boundaries in all three dimensions
atom_style 	atomic	#
#box tilt large		# Allow larger than normal tilt factors

variable T_start equal 600
variable T_end equal 200
variable tstep equal 0.002
timestep ${tstep}
timestep 0.002

read_data   lammps.txt	# Read in atom coordinates from a file
Reading data file ...
  triclinic box = (0 0 0) to (9.9204335 11.091382 24.734581) with tilt (4.9602167 16.740731 30.778584)
WARNING: Triclinic box skew is large. LAMMPS will run inefficiently. (src/domain.cpp:221)
  1 by 1 by 1 MPI processor grid
  reading atoms ...
  144 atoms
  read_data CPU = 0.001 seconds

#---------------------------------------------------------------------------------------------------
# Define how the forces between the atoms will be modelled
#---------------------------------------------------------------------------------------------------
pair_style eam/alloy
pair_coeff * * Zope-Ti-Al-2003.eam.alloy.txt Al Al

#---------------------------------------------------------------------------------------------------
# Set behaviour of simulation
#---------------------------------------------------------------------------------------------------
group g_fixed type 2
36 atoms in group g_fixed
group g_other type 1
108 atoms in group g_other
fix f_freeze g_fixed setforce 0.0 0.0 0.0 	# Hold atoms of type 2 fixed in place
#fix f_constrain g_other setforce 0.0 0.0 NULL 	# All atoms of type 1 to move only in z direction

#---------------------------------------------------------------------------------------------------
# Specify what information to write out
#---------------------------------------------------------------------------------------------------
thermo_style custom step atoms temp pe ke etotal fmax
thermo_modify format 6 %20.10f
thermo 1000

#compute statom all stress/atom NULL
compute peatom all pe/atom
dump 1 all custom 100000 dump.* id type x y z c_peatom
dump_modify 1 first yes


#---------------------------------------------------------------------------------------------------
# Initial relaxation
#---------------------------------------------------------------------------------------------------
velocity all set 0.0 0.0 0.0

min_style 	cg
min_modify dmax 0.1
minimize 	0.0 1.0e-6 10000 100000
Neighbor list info ...
  update: every = 1 steps, delay = 0 steps, check = yes
  max neighbors/atom: 2000, page size: 100000
  master list distance cutoff = 8.724884
  ghost atom cutoff = 8.724884
  binsize = 4.362442, bins = 8 10 6
  1 neighbor lists, perpetual/occasional/extra = 1 0 0
  (1) pair eam/alloy, perpetual
      attributes: half, newton on
      pair build: half/bin/atomonly/newton/tri
      stencil: half/bin/3d/tri
      bin: standard
Per MPI rank memory allocation (min/avg/max) = 4.646 | 4.646 | 4.646 Mbytes
   Step        Atoms         Temp          PotEng         KinEng         TotEng          Fmax     
         0         144   0             -456.13125      0                  -456.1312489167  3.071072     
        58         144   0             -468.48561      0                  -468.4856090828  1.0949942e-07
Loop time of 0.00882971 on 1 procs for 58 steps with 144 atoms

99.1% CPU use with 1 MPI tasks x no OpenMP threads

Minimization stats:
  Stopping criterion = force tolerance
  Energy initial, next-to-last, final = 
     -456.131248916694   -468.48560908276  -468.485609082757
  Force two-norm initial, final = 12.438296 9.4156325e-07
  Force max component initial, final = 3.071072 1.0949942e-07
  Final line search alpha, max atom move = 1 1.0949942e-07
  Iterations, force evaluations = 58 109

MPI task timing breakdown:
Section |  min time  |  avg time  |  max time  |%varavg| %total
---------------------------------------------------------------
Pair    | 0.0080005  | 0.0080005  | 0.0080005  |   0.0 | 90.61
Neigh   | 0          | 0          | 0          |   0.0 |  0.00
Comm    | 0.00041763 | 0.00041763 | 0.00041763 |   0.0 |  4.73
Output  | 0          | 0          | 0          |   0.0 |  0.00
Modify  | 1.4502e-05 | 1.4502e-05 | 1.4502e-05 |   0.0 |  0.16
Other   |            | 0.0003971  |            |       |  4.50

Nlocal:            144 ave         144 max         144 min
Histogram: 1 0 0 0 0 0 0 0 0 0
Nghost:           2190 ave        2190 max        2190 min
Histogram: 1 0 0 0 0 0 0 0 0 0
Neighs:          10860 ave       10860 max       10860 min
Histogram: 1 0 0 0 0 0 0 0 0 0

Total # of neighbors = 10860
Ave neighs/atom = 75.416667
Neighbor list builds = 0
Dangerous builds = 0
#---------------------------------------------------------------------------------------------------
# Anneal boundary structures
#---------------------------------------------------------------------------------------------------
reset_timestep 100000
fix md g_other nvt temp ${T_start} ${T_end} $(100.0*v_tstep)
fix md g_other nvt temp 600 ${T_end} $(100.0*v_tstep)
fix md g_other nvt temp 600 200 $(100.0*v_tstep)
fix md g_other nvt temp 600 200 0.2000000000000000111

velocity all create ${T_start} 4928459 rot yes mom yes dist gaussian
velocity all create 600 4928459 rot yes mom yes dist gaussian
run 10000
Per MPI rank memory allocation (min/avg/max) = 4.903 | 4.903 | 4.903 Mbytes
   Step        Atoms         Temp          PotEng         KinEng         TotEng          Fmax     
    100000         144   600           -468.48561      11.09052           -457.3950886418  1.0949944e-07
    101000         144   578.00488     -461.51664      10.683958          -450.8326823255  1.339864     
    102000         144   594.29488     -463.38753      10.985066          -452.4024636089  1.1116201    
    103000         144   593.4895      -463.47268      10.970179          -452.5024967661  1.1161432    
    104000         144   548.97696     -464.36133      10.1474            -454.2139300187  1.0631514    
    105000         144   500.91845     -464.84167      9.2590773          -455.5825926435  1.307786     
    106000         144   432.22219     -466.16821      7.9892817          -458.1789272702  1.1157113    
    107000         144   406.09177     -467.47407      7.5062817          -459.9677865466  1.0334569    
    108000         144   413.29028     -467.21402      7.6393405          -459.5746831420  0.97939499   
    109000         144   376.36755     -468.08405      6.9568534          -461.1271937101  0.92322767   
    110000         144   339.79131     -468.32747      6.2807708          -462.0466988741  0.78236801   
Loop time of 0.822953 on 1 procs for 10000 steps with 144 atoms

Performance: 2099.756 ns/day, 0.011 hours/ns, 12151.363 timesteps/s, 1.750 Matom-step/s
99.8% CPU use with 1 MPI tasks x no OpenMP threads

MPI task timing breakdown:
Section |  min time  |  avg time  |  max time  |%varavg| %total
---------------------------------------------------------------
Pair    | 0.71098    | 0.71098    | 0.71098    |   0.0 | 86.39
Neigh   | 0.051112   | 0.051112   | 0.051112   |   0.0 |  6.21
Comm    | 0.039815   | 0.039815   | 0.039815   |   0.0 |  4.84
Output  | 4.421e-05  | 4.421e-05  | 4.421e-05  |   0.0 |  0.01
Modify  | 0.010696   | 0.010696   | 0.010696   |   0.0 |  1.30
Other   |            | 0.01031    |            |       |  1.25

Nlocal:            144 ave         144 max         144 min
Histogram: 1 0 0 0 0 0 0 0 0 0
Nghost:           2250 ave        2250 max        2250 min
Histogram: 1 0 0 0 0 0 0 0 0 0
Neighs:          10585 ave       10585 max       10585 min
Histogram: 1 0 0 0 0 0 0 0 0 0

Total # of neighbors = 10585
Ave neighs/atom = 73.506944
Neighbor list builds = 113
Dangerous builds = 0
unfix md

#---------------------------------------------------------------------------------------------------
# Final relaxation
#---------------------------------------------------------------------------------------------------
velocity all set 0.0 0.0 0.0

min_style 	cg
min_modify dmax 0.1
minimize 	0.0 1.0e-6 10000 100000
Per MPI rank memory allocation (min/avg/max) = 6.029 | 6.029 | 6.029 Mbytes
   Step        Atoms         Temp          PotEng         KinEng         TotEng          Fmax     
    110000         144   0             -468.32747      0                  -468.3274696337  0.78236801   
    110055         144   0             -471.8193       0                  -471.8193008863  1.4346053e-07
Loop time of 0.0128353 on 1 procs for 55 steps with 144 atoms

69.7% CPU use with 1 MPI tasks x no OpenMP threads

Minimization stats:
  Stopping criterion = force tolerance
  Energy initial, next-to-last, final = 
     -468.327469633741  -471.819300886275  -471.819300886275
  Force two-norm initial, final = 4.7629995 8.9161895e-07
  Force max component initial, final = 0.78236801 1.4346053e-07
  Final line search alpha, max atom move = 1 1.4346053e-07
  Iterations, force evaluations = 55 107

MPI task timing breakdown:
Section |  min time  |  avg time  |  max time  |%varavg| %total
---------------------------------------------------------------
Pair    | 0.0081905  | 0.0081905  | 0.0081905  |   0.0 | 63.81
Neigh   | 0          | 0          | 0          |   0.0 |  0.00
Comm    | 0.00042503 | 0.00042503 | 0.00042503 |   0.0 |  3.31
Output  | 0          | 0          | 0          |   0.0 |  0.00
Modify  | 1.4375e-05 | 1.4375e-05 | 1.4375e-05 |   0.0 |  0.11
Other   |            | 0.004205   |            |       | 32.76

Nlocal:            144 ave         144 max         144 min
Histogram: 1 0 0 0 0 0 0 0 0 0
Nghost:           2265 ave        2265 max        2265 min
Histogram: 1 0 0 0 0 0 0 0 0 0
Neighs:          10600 ave       10600 max       10600 min
Histogram: 1 0 0 0 0 0 0 0 0 0

Total # of neighbors = 10600
Ave neighs/atom = 73.611111
Neighbor list builds = 0
Dangerous builds = 0

Total wall time: 0:00:00
