#Lammps coordinate file for CSL - Axis: [1 1 1]  Angle: (1, 3) -> 59.99999999999999  Plane indices: [0 1 1]  z-position: [4.9336451853244885 14.800935555973464]  Repeats: 1 1 (3, 3) (black, white)  Fixed: 2.228  Boundary equiv: True
144 atoms

2 atom types

0.0 9.920433458271871 xlo xhi
0.0 11.091381789479609 ylo yhi
0.0 19.734580741297954 zlo zhi
4.9602167291359365 8.0603521848459 39.09712080791563 xy xz yz

Atoms

1 1 6.5102844569909175 14.002869509218009 5.339252716211904
2 1 11.47050118612685 14.002869509218009 5.339252716211904
3 1 8.990392821558885 15.11200768816597 6.24486024709932
4 1 11.470501186126851 16.221145867113933 7.150467777986734
5 1 14.777312338884142 17.69999677237788 5.339252716211904
6 1 6.510284456990917 16.221145867113933 7.150467777986734
7 1 4.03017609242295 17.330284046061895 8.05607530887415
8 2 6.5102844569909175 18.439422225009853 8.961682839761563
9 1 4.03017609242295 15.11200768816597 6.244860247099319
10 2 11.470501186126851 18.439422225009853 8.961682839761563
11 2 8.990392821558885 19.548560403957815 9.867290370648979
12 2 11.470501186126853 20.657698582905777 10.772897901536393
13 1 8.990392821558885 17.330284046061895 8.05607530887415
14 1 9.817095609748206 17.69999677237788 5.339252716211904
15 1 7.33698724518024 18.80913495132584 6.244860247099319
16 1 9.817095609748208 19.918273130273803 7.150467777986734
17 1 14.777312338884142 19.9182731302738 7.150467777986734
18 1 12.297203974316176 21.027411309221762 8.05607530887415
19 2 14.777312338884144 22.136549488169724 8.961682839761563
20 1 12.297203974316174 18.80913495132584 6.24486024709932
21 1 13.123906762505499 21.39712403553775 5.339252716211903
22 1 15.604015127073467 22.506262214485712 6.244860247099318
23 2 6.510284456990918 20.657698582905777 10.772897901536393
24 1 4.030176092422951 21.76683676185374 11.678505432423808
25 1 6.510284456990918 22.8759749408017 12.584112963311222
26 2 4.030176092422951 19.548560403957815 9.867290370648979
27 1 11.470501186126853 22.8759749408017 12.584112963311222
28 1 8.990392821558887 23.98511311974966 13.489720494198638
29 1 11.470501186126853 25.09425129869762 14.395328025086053
30 1 8.990392821558887 21.76683676185374 11.678505432423808
31 2 9.817095609748208 22.136549488169724 8.961682839761563
32 2 7.336987245180241 23.245687667117686 9.867290370648979
33 2 9.817095609748208 24.354825846065648 10.772897901536393
34 1 7.336987245180241 21.027411309221765 8.05607530887415
35 1 8.163690033369562 21.39712403553775 5.339252716211903
36 1 8.163690033369562 23.615400393433674 7.150467777986734
37 2 14.777312338884144 24.354825846065648 10.772897901536393
38 1 12.297203974316176 25.46396402501361 11.678505432423808
39 1 14.777312338884144 26.57310220396157 12.584112963311224
40 2 12.297203974316176 23.245687667117686 9.867290370648979
41 1 13.123906762505499 23.61540039343367 7.150467777986734
42 1 10.64379839793753 24.724538572381636 8.05607530887415
43 2 13.123906762505499 25.833676751329595 8.961682839761563
44 1 10.64379839793753 22.506262214485712 6.244860247099319
45 2 15.604015127073467 26.942814930277557 9.867290370648977
46 1 15.604015127073467 24.724538572381633 8.05607530887415
47 1 6.510284456990919 25.094251298697625 14.395328025086052
48 1 4.030176092422952 23.985113119749663 13.489720494198638
49 1 9.817095609748208 26.57310220396157 12.584112963311222
50 1 7.336987245180243 27.68224038290953 13.489720494198638
51 1 9.81709560974821 28.791378561857492 14.395328025086053
52 1 7.336987245180242 25.46396402501361 11.678505432423808
53 2 8.163690033369562 25.833676751329595 8.961682839761563
54 2 8.163690033369564 28.05195310922552 10.772897901536393
55 1 14.777312338884144 28.791378561857492 14.395328025086052
56 1 12.297203974316176 27.68224038290953 13.48972049419864
57 2 13.123906762505499 28.05195310922552 10.772897901536393
58 1 10.643798397937532 29.16109128817348 11.678505432423808
59 1 13.1239067625055 30.270229467121442 12.584112963311224
60 2 10.64379839793753 26.942814930277557 9.867290370648979
61 1 15.604015127073465 31.3793676460694 13.489720494198636
62 1 15.604015127073463 29.161091288173477 11.678505432423808
63 1 8.163690033369564 30.270229467121442 12.58411296331122
64 1 8.163690033369564 32.48850582501736 14.395328025086052
65 1 13.1239067625055 32.48850582501736 14.39532802508605
66 1 10.643798397937532 31.3793676460694 13.489720494198638
67 1 0.0 2.218276357895923 1.8112150617748293
68 2 2.480108364567968 1.109138178947961 0.9056075308874145
69 2 4.960216729135936 -8.881784197001252e-16 -2.220446049250313e-16
70 2 0.0 0.0 0.0
71 1 0.0 6.654829073687768 4.9336451853244885
72 1 2.480108364567968 3.327414536843884 2.7168225926622442
73 1 2.4801083645679682 5.545690894739806 4.528037654437074
74 1 4.960216729135936 4.436552715791845 3.622430123549659
75 1 0.0 4.436552715791845 3.622430123549659
76 1 1.6534055763786455 5.915403621055794 1.8112150617748293
77 2 7.440325093703903 1.109138178947961 0.9056075308874145
78 1 7.440325093703903 3.3274145368438837 2.7168225926622442
79 1 4.960216729135936 2.218276357895922 1.8112150617748293
80 2 4.133513940946613 4.806265442107832 0.9056075308874143
81 2 6.61362230551458 3.6971272631598704 -5.551115123125783e-16
82 2 1.6534055763786455 3.697127263159871 -4.440892098500626e-16
83 1 1.6534055763786455 10.351956336847639 4.9336451853244885
84 1 7.440325093703903 5.545690894739806 4.528037654437074
85 1 4.960216729135936 6.654829073687768 4.9336451853244885
86 1 4.133513940946613 7.024541800003755 2.7168225926622434
87 1 4.133513940946613 9.242818157899677 4.528037654437074
88 1 6.61362230551458 8.133679978951715 3.622430123549659
89 1 1.6534055763786455 8.133679978951717 3.622430123549659
90 1 3.3068111527572905 9.612530884215664 1.8112150617748288
91 2 9.093730670082548 4.806265442107832 0.9056075308874141
92 1 9.093730670082547 7.024541800003755 2.7168225926622434
93 1 6.61362230551458 5.915403621055793 1.8112150617748288
94 2 5.7869195173252574 8.503392705267704 0.9056075308874139
95 2 8.267027881893226 7.394254526319742 -9.992007221626409e-16
96 2 3.3068111527572905 7.394254526319742 -7.771561172376096e-16
97 1 3.306811152757291 14.04908360000751 4.933645185324488
98 1 9.093730670082547 9.242818157899677 4.528037654437074
99 1 6.613622305514581 10.351956336847639 4.9336451853244885
100 1 5.786919517325258 10.721669063163626 2.7168225926622434
101 1 5.786919517325258 12.939945421059548 4.528037654437073
102 1 8.267027881893226 11.830807242111586 3.622430123549658
103 1 3.306811152757291 11.830807242111588 3.622430123549658
104 2 10.747136246461192 8.503392705267704 0.9056075308874136
105 1 10.747136246461192 10.721669063163626 2.7168225926622434
106 1 8.267027881893226 9.612530884215664 1.8112150617748284
107 1 8.060352184845899 32.442291734227865 14.800935555973467
108 1 10.747136246461192 12.939945421059548 4.528037654437073
109 1 8.267027881893226 14.04908360000751 4.933645185324488
110 1 8.060352184845899 36.87884445001971 17.923365679523123
111 1 10.540460549413865 33.55142991317583 15.20654308686088
112 1 10.540460549413867 35.769706271071755 17.01775814863571
113 1 13.020568913981833 34.66056809212379 16.112150617748295
114 1 8.060352184845899 34.66056809212379 16.112150617748295
115 1 9.713757761224542 36.139418997387736 14.800935555973464
116 1 15.500677278549801 33.55142991317583 15.20654308686088
117 1 13.020568913981833 32.442291734227865 14.800935555973464
118 2 10.540460549413867 37.98798262896767 18.82897321041054
119 1 9.713757761224544 40.57597171317958 17.923365679523123
120 1 15.500677278549801 35.76970627107175 17.017758148635707
121 2 15.500677278549801 37.98798262896767 18.82897321041054
122 1 13.020568913981833 36.87884445001971 17.923365679523126
123 1 12.19386612579251 37.2485571763357 15.20654308686088
124 1 12.193866125792512 39.46683353423162 17.01775814863571
125 1 14.673974490360479 38.35769535528366 16.112150617748295
126 1 9.713757761224544 38.35769535528366 16.112150617748295
127 1 11.367163337603188 39.83654626054761 14.800935555973464
128 1 17.154082854928447 37.2485571763357 15.20654308686088
129 1 14.673974490360479 36.139418997387736 14.800935555973464
130 2 12.193866125792512 41.68510989212754 18.82897321041054
131 1 11.36716333760319 44.27309897633945 17.923365679523123
132 1 17.154082854928447 39.46683353423162 17.017758148635707
133 2 17.154082854928447 41.68510989212754 18.82897321041054
134 1 14.673974490360479 40.57597171317958 17.923365679523126
135 1 13.847271702171156 40.945684439495565 15.20654308686088
136 1 13.847271702171158 43.16396079739149 17.01775814863571
137 1 16.327380066739124 42.05482261844353 16.112150617748295
138 1 11.36716333760319 42.05482261844353 16.112150617748295
139 1 18.807488431307092 40.945684439495565 15.20654308686088
140 1 16.327380066739124 39.83654626054761 14.800935555973464
141 2 13.847271702171158 45.38223715528741 18.82897321041054
142 1 18.807488431307092 43.16396079739149 17.017758148635707
143 2 18.807488431307092 45.38223715528741 18.82897321041054
144 1 16.327380066739124 44.27309897633945 17.923365679523126
