ITEM: TIMESTEP
100000
ITEM: NUMBER OF ATOMS
144
ITEM: BOX BOUNDS xy xz yz pp pp pp
0.0000000000000000e+00 2.4181056554537690e+01 4.9602167291359365e+00
0.0000000000000000e+00 4.1869966255285533e+01 9.3004063671298844e+00
0.0000000000000000e+00 2.2734580741297954e+01 3.0778584465805924e+01
ITEM: ATOMS id type x y z c_peatom
70 2 0 0 0 -3.37365
69 2 4.96022 0 0 -3.37365
81 2 6.61362 3.69713 0 -3.3714
82 2 11.5738 3.69713 0 -3.3714
80 2 4.13351 4.80627 0.905608 -3.35429
86 1 4.10721 7.02434 2.74351 -3.31445
88 1 6.52073 8.16708 3.81487 -3.29605
91 2 9.09373 4.80627 0.905608 -3.35429
92 1 9.06742 7.02434 2.74351 -3.31445
93 1 6.59511 5.95286 1.81054 -3.36346
94 2 5.78692 8.50339 0.905608 -3.3451
95 2 8.26703 7.39425 0 -3.3714
76 1 11.5553 5.95286 1.81054 -3.36346
89 1 11.4809 8.16708 3.81487 -3.29605
96 2 13.2272 7.39425 0 -3.3714
104 2 10.7471 8.50339 0.905608 -3.3451
68 2 7.44033 12.2005 0.905608 -3.36503
100 1 5.81272 10.6843 2.6261 -3.2661
101 1 5.78072 12.8816 4.33852 -3.30128
102 1 8.26269 11.7962 3.50942 -3.29168
106 1 8.26042 9.56464 1.8489 -3.32669
77 2 12.4005 12.2005 0.905608 -3.36503
79 1 9.89624 13.297 1.73224 -3.36986
90 1 13.2206 9.56464 1.8489 -3.32669
103 1 13.2229 11.7962 3.50942 -3.29168
105 1 10.7729 10.6843 2.6261 -3.2661
108 1 10.7409 12.8816 4.33852 -3.30128
67 1 14.8565 13.297 1.73224 -3.36986
72 1 7.40348 14.4021 2.64665 -3.35499
73 1 7.38206 16.5512 4.47463 -3.2995
74 1 9.87855 15.4834 3.50333 -3.29576
78 1 12.3637 14.4021 2.64665 -3.35499
84 1 12.3423 16.5512 4.47463 -3.2995
75 1 14.8388 15.4834 3.50333 -3.29576
87 1 3.93515 7.81677 5.47523 -3.18137
98 1 8.89537 7.81677 5.47523 -3.18137
9 1 4.74785 11.0313 7.79555 -3.30088
1 1 7.34456 11.2303 6.13107 -3.24614
5 1 5.68051 13.624 6.93586 -3.31572
6 1 7.18592 12.076 8.7566 -3.3052
99 1 4.89889 10.2951 5.11132 -3.09445
109 1 8.24494 13.956 5.31184 -3.31393
3 1 9.70807 11.0313 7.79555 -3.30088
2 1 12.3048 11.2303 6.13107 -3.24614
4 1 12.1461 12.076 8.7566 -3.3052
14 1 10.6407 13.624 6.93586 -3.31572
83 1 9.85911 10.2951 5.11132 -3.09445
97 1 13.2052 13.956 5.31184 -3.31393
15 1 8.11145 14.716 7.88764 -3.28448
17 1 5.57058 15.8403 8.72058 -3.29677
35 1 7.37512 17.2935 7.12261 -3.08704
16 1 10.5308 15.8403 8.72058 -3.29677
20 1 13.0717 14.716 7.88764 -3.28448
21 1 12.3353 17.2935 7.12261 -3.08704
85 1 9.86052 16.3671 6.08326 -3.23547
71 1 14.8207 16.3671 6.08326 -3.23547
36 1 8.83711 19.4261 8.49836 -3.30186
44 1 11.329 19.7955 6.8461 -3.18924
41 1 13.7973 19.4261 8.49836 -3.30186
22 1 16.2892 19.7955 6.8461 -3.18924
7 1 4.67907 13.2017 9.61145 -3.36993
13 1 9.63929 13.2017 9.61145 -3.36993
26 2 4.6502 15.3893 11.3673 -3.35359
8 2 7.13031 14.2802 10.4617 -3.3842
34 1 8.01293 16.8981 9.67016 -3.25557
11 2 9.61042 15.3893 11.3673 -3.35359
10 2 12.0905 14.2802 10.4617 -3.3842
18 1 12.9731 16.8981 9.67016 -3.25557
31 2 10.4371 17.9773 10.4617 -3.32578
19 2 15.3973 17.9773 10.4617 -3.32578
32 2 7.95701 19.0864 11.3673 -3.35171
52 1 7.92298 21.3276 13.163 -3.3115
53 2 8.78372 21.6744 10.4617 -3.37379
33 2 10.4371 20.1956 12.2729 -3.37379
38 1 12.8832 21.3276 13.163 -3.3115
40 2 12.9172 19.0864 11.3673 -3.35171
42 1 11.2979 20.5424 9.57163 -3.3115
43 2 13.7439 21.6744 10.4617 -3.37379
60 2 11.2638 22.7835 11.3673 -3.35171
37 2 15.3973 20.1956 12.2729 -3.37379
45 2 16.224 22.7835 11.3673 -3.35171
46 1 16.2581 20.5424 9.57163 -3.3115
54 2 8.78372 23.8927 12.2729 -3.32578
23 2 12.0905 27.5898 12.2729 -3.3842
57 2 13.7439 23.8927 12.2729 -3.32578
58 1 11.2079 24.9719 13.0644 -3.25557
12 2 17.0507 27.5898 12.2729 -3.3842
62 1 16.1681 24.9719 13.0644 -3.25557
30 1 14.5418 28.6683 13.1231 -3.36993
24 1 19.502 28.6683 13.1231 -3.36993
50 1 7.89182 22.0745 15.8885 -3.18924
49 1 10.3837 22.4439 14.2362 -3.30186
56 1 12.852 22.0745 15.8885 -3.18924
39 1 15.344 22.4439 14.2362 -3.30186
107 1 9.36032 25.5029 16.6513 -3.23547
51 1 11.8457 24.5765 15.612 -3.08704
59 1 13.6503 26.0297 14.014 -3.29677
66 1 11.1094 27.154 14.8469 -3.28448
117 1 14.3205 25.5029 16.6513 -3.23547
55 1 16.8059 24.5765 15.612 -3.08704
61 1 16.0696 27.154 14.8469 -3.28448
63 1 18.6105 26.0297 14.014 -3.29677
115 1 10.9759 27.9139 17.4227 -3.31393
25 1 12.0349 29.794 13.978 -3.3052
47 1 11.8763 30.6397 16.6035 -3.24614
65 1 13.5403 28.246 15.7987 -3.31572
127 1 14.3219 31.5749 17.6233 -3.09445
28 1 14.473 30.8387 14.939 -3.30088
129 1 15.9361 27.9139 17.4227 -3.31393
27 1 16.9951 29.794 13.978 -3.3052
29 1 16.8365 30.6397 16.6035 -3.24614
64 1 18.5005 28.246 15.7987 -3.31572
140 1 19.2822 31.5749 17.6233 -3.09445
48 1 19.4332 30.8387 14.939 -3.30088
135 1 15.2857 34.0532 17.2593 -3.18137
139 1 20.2459 34.0532 17.2593 -3.18137
114 1 9.34229 26.3866 19.2313 -3.29576
111 1 11.8388 25.3187 18.2599 -3.2995
112 1 11.8174 27.4679 20.0879 -3.35499
113 1 14.3025 26.3866 19.2313 -3.29576
116 1 16.799 25.3187 18.2599 -3.2995
120 1 16.7776 27.4679 20.0879 -3.35499
110 1 9.3246 28.573 21.0023 -3.36986
118 2 11.7805 29.6694 21.829 -3.36503
119 1 10.9604 32.3053 20.8857 -3.32669
122 1 14.2848 28.573 21.0023 -3.36986
123 1 13.4401 28.9883 18.3961 -3.30128
124 1 13.4081 31.1857 20.1085 -3.2661
126 1 10.9582 30.0738 19.2252 -3.29168
121 2 16.7407 29.6694 21.829 -3.36503
125 1 15.9184 30.0738 19.2252 -3.29168
128 1 18.4003 28.9883 18.3961 -3.30128
132 1 18.3683 31.1857 20.1085 -3.2661
134 1 15.9206 32.3053 20.8857 -3.32669
130 2 13.4339 33.3666 21.829 -3.3451
131 1 12.6257 35.9171 20.924 -3.36346
138 1 12.7001 33.7029 18.9197 -3.29605
133 2 18.3941 33.3666 21.829 -3.3451
136 1 15.1136 34.8456 19.9911 -3.31445
137 1 17.6603 33.7029 18.9197 -3.29605
141 2 15.0873 37.0637 21.829 -3.35429
144 1 17.5859 35.9171 20.924 -3.36346
142 1 20.0738 34.8456 19.9911 -3.31445
143 2 20.0475 37.0637 21.829 -3.35429
