#Lammps coordinate file for CSL - Axis: [1 1 1]  Angle: (1, 3) -> 59.99999999999999  Plane indices: [0 1 1]  z-position: [6.1836451853244885 18.550935555973464]  Repeats: 1 1 (3, 3) (black, white)  Fixed: 2.228  Boundary equiv: True
144 atoms

2 atom types

0.0 9.920433458271871 xlo xhi
0.0 11.091381789479609 ylo yhi
0.0 24.734580741297954 zlo zhi
4.9602167291359365 12.400541822839845 43.256388978970485 xy xz yz

Atoms

1 1 8.680379275987889 16.082503594745436 7.839252716211904
2 1 13.640596005123822 16.082503594745436 7.839252716211904
3 1 11.160487640555857 17.191641773693398 8.74486024709932
4 1 13.640596005123824 18.300779952641356 9.650467777986734
5 1 16.947407157881116 19.779630857905303 7.839252716211904
6 1 8.680379275987889 18.300779952641356 9.650467777986734
7 1 6.200270911419922 19.409918131589322 10.55607530887415
8 2 8.680379275987889 20.51905631053728 11.461682839761563
9 1 6.200270911419922 17.191641773693398 8.744860247099318
10 2 13.640596005123824 20.51905631053728 11.461682839761563
11 2 11.160487640555857 21.62819448948524 12.367290370648979
12 2 13.640596005123825 22.737332668433204 13.272897901536393
13 1 11.160487640555857 19.409918131589322 10.55607530887415
14 1 11.987190428745178 19.779630857905303 7.839252716211904
15 1 9.507082064177212 20.88876903685327 8.744860247099318
16 1 11.98719042874518 21.997907215801227 9.650467777986734
17 1 16.947407157881116 21.997907215801227 9.650467777986734
18 1 14.467298793313148 23.10704539474919 10.55607530887415
19 2 16.947407157881116 24.21618357369715 11.461682839761563
20 1 14.467298793313146 20.88876903685327 8.74486024709932
21 1 15.29400158150247 23.476758121065174 7.839252716211903
22 1 17.77410994607044 24.58589630001314 8.744860247099318
23 2 8.68037927598789 22.737332668433204 13.272897901536393
24 1 6.200270911419923 23.846470847381163 14.178505432423808
25 1 8.68037927598789 24.955609026329128 15.084112963311222
26 2 6.200270911419923 21.628194489485242 12.367290370648979
27 1 13.640596005123825 24.955609026329128 15.084112963311222
28 1 11.160487640555859 26.064747205277087 15.989720494198638
29 1 13.640596005123825 27.173885384225045 16.89532802508605
30 1 11.160487640555859 23.846470847381163 14.178505432423808
31 2 11.98719042874518 24.21618357369715 11.461682839761563
32 2 9.507082064177213 25.32532175264511 12.367290370648979
33 2 11.98719042874518 26.434459931593075 13.272897901536393
34 1 9.507082064177213 23.107045394749193 10.55607530887415
35 1 10.333784852366534 23.476758121065174 7.839252716211903
36 1 10.333784852366534 25.695034478961098 9.650467777986734
37 2 16.947407157881116 26.434459931593075 13.272897901536393
38 1 14.467298793313148 27.543598110541033 14.178505432423808
39 1 16.947407157881116 28.652736289489 15.084112963311224
40 2 14.467298793313148 25.32532175264511 12.367290370648979
41 1 15.29400158150247 25.695034478961098 9.650467777986734
42 1 12.813893216934503 26.804172657909064 10.55607530887415
43 2 15.29400158150247 27.913310836857022 11.461682839761563
44 1 12.813893216934503 24.58589630001314 8.744860247099318
45 2 17.77410994607044 29.02244901580498 12.367290370648977
46 1 17.77410994607044 26.804172657909056 10.55607530887415
47 1 8.680379275987892 27.173885384225052 16.89532802508605
48 1 6.200270911419924 26.064747205277087 15.989720494198638
49 1 11.98719042874518 28.652736289489 15.084112963311222
50 1 9.507082064177215 29.761874468436957 15.989720494198638
51 1 11.987190428745182 30.871012647384916 16.89532802508605
52 1 9.507082064177215 27.543598110541033 14.178505432423808
53 2 10.333784852366534 27.913310836857022 11.461682839761563
54 2 10.333784852366536 30.131587194752946 13.272897901536393
55 1 16.947407157881116 30.871012647384916 16.89532802508605
56 1 14.467298793313148 29.761874468436957 15.98972049419864
57 2 15.29400158150247 30.131587194752946 13.272897901536393
58 1 12.813893216934504 31.240725373700904 14.178505432423808
59 1 15.294001581502473 32.34986355264887 15.084112963311224
60 2 12.813893216934503 29.02244901580498 12.367290370648979
61 1 17.77410994607044 33.45900173159683 15.989720494198636
62 1 17.774109946070435 31.240725373700904 14.178505432423808
63 1 10.333784852366536 32.34986355264887 15.08411296331122
64 1 10.333784852366536 34.56813991054479 16.89532802508605
65 1 15.294001581502473 34.56813991054479 16.895328025086048
66 1 12.813893216934504 33.45900173159683 15.989720494198638
67 1 0.0 2.218276357895922 1.8112150617748295
68 2 2.480108364567968 1.109138178947961 0.9056075308874147
69 2 4.960216729135936 0.0 -2.220446049250313e-16
70 2 0.0 0.0 0.0
71 1 0.0 6.654829073687768 6.1836451853244885
72 1 2.480108364567968 3.327414536843884 2.7168225926622442
73 1 2.4801083645679682 5.545690894739806 4.528037654437074
74 1 4.960216729135936 4.436552715791845 3.622430123549659
75 1 0.0 4.436552715791845 3.622430123549659
76 1 1.6534055763786455 5.915403621055794 1.811215061774829
77 2 7.440325093703903 1.109138178947961 0.9056075308874146
78 1 7.440325093703903 3.327414536843884 2.7168225926622442
79 1 4.960216729135936 2.218276357895922 1.8112150617748293
80 2 4.133513940946613 4.806265442107832 0.9056075308874144
81 2 6.61362230551458 3.697127263159871 -4.440892098500626e-16
82 2 1.6534055763786455 3.697127263159871 -2.220446049250313e-16
83 1 1.6534055763786455 10.351956336847639 6.1836451853244885
84 1 7.440325093703903 5.545690894739806 4.528037654437074
85 1 4.960216729135936 6.654829073687768 6.1836451853244885
86 1 4.133513940946613 7.024541800003755 2.7168225926622442
87 1 4.133513940946613 9.242818157899677 4.528037654437074
88 1 6.61362230551458 8.133679978951715 3.622430123549659
89 1 1.6534055763786455 8.133679978951717 3.622430123549659
90 1 3.3068111527572905 9.612530884215664 1.8112150617748288
91 2 9.093730670082548 4.806265442107832 0.9056075308874143
92 1 9.093730670082547 7.024541800003755 2.7168225926622442
93 1 6.61362230551458 5.915403621055793 1.8112150617748288
94 2 5.7869195173252574 8.503392705267704 0.905607530887414
95 2 8.267027881893226 7.394254526319742 -8.881784197001252e-16
96 2 3.3068111527572905 7.394254526319742 -6.661338147750939e-16
97 1 3.306811152757291 14.04908360000751 6.183645185324488
98 1 9.093730670082547 9.242818157899677 4.528037654437074
99 1 6.613622305514581 10.351956336847639 6.1836451853244885
100 1 5.786919517325258 10.721669063163626 2.7168225926622434
101 1 5.786919517325258 12.939945421059548 4.528037654437073
102 1 8.267027881893226 11.830807242111586 3.622430123549658
103 1 3.306811152757291 11.830807242111588 3.622430123549658
104 2 10.747136246461192 8.503392705267704 0.9056075308874139
105 1 10.747136246461192 10.721669063163626 2.7168225926622434
106 1 8.267027881893226 9.612530884215664 1.8112150617748286
107 1 12.400541822839843 36.60155990528272 18.550935555973467
108 1 10.747136246461192 12.939945421059548 4.528037654437073
109 1 8.267027881893226 14.04908360000751 6.183645185324488
110 1 12.400541822839843 41.03811262107457 22.923365679523123
111 1 14.88065018740781 37.710698084230685 20.20654308686088
112 1 14.880650187407811 39.92897444212661 22.01775814863571
113 1 17.360758551975778 38.819836263178644 21.112150617748295
114 1 12.400541822839843 38.819836263178644 21.112150617748295
115 1 14.053947399218487 40.29868716844259 18.550935555973464
116 1 19.840866916543746 37.710698084230685 20.20654308686088
117 1 17.360758551975778 36.60155990528272 18.550935555973464
118 2 14.880650187407811 42.147250800022526 23.82897321041054
119 1 14.053947399218488 44.73523988423444 22.923365679523123
120 1 19.840866916543746 39.9289744421266 22.017758148635707
121 2 19.840866916543746 42.147250800022526 23.82897321041054
122 1 17.360758551975778 41.03811262107457 22.923365679523126
123 1 16.534055763786455 41.407825347390556 20.20654308686088
124 1 16.534055763786455 43.62610170528648 22.01775814863571
125 1 19.014164128354423 42.516963526338515 21.112150617748295
126 1 14.053947399218488 42.516963526338515 21.112150617748295
127 1 15.707352975597132 43.99581443160246 18.550935555973464
128 1 21.49427249292239 41.407825347390556 20.20654308686088
129 1 19.014164128354423 40.29868716844259 18.550935555973464
130 2 16.534055763786455 45.8443780631824 23.82897321041054
131 1 15.707352975597134 48.43236714739431 22.923365679523123
132 1 21.49427249292239 43.62610170528647 22.017758148635707
133 2 21.49427249292239 45.8443780631824 23.82897321041054
134 1 19.014164128354423 44.73523988423444 22.923365679523126
135 1 18.1874613401651 45.10495261055043 20.20654308686088
136 1 18.1874613401651 47.32322896844635 22.01775814863571
137 1 20.66756970473307 46.214090789498385 21.112150617748295
138 1 15.707352975597134 46.214090789498385 21.112150617748295
139 1 23.147678069301037 45.10495261055043 20.20654308686088
140 1 20.66756970473307 43.99581443160246 18.550935555973464
141 2 18.1874613401651 49.541505326342275 23.82897321041054
142 1 23.147678069301037 47.323228968446344 22.017758148635707
143 2 23.147678069301037 49.541505326342275 23.82897321041054
144 1 20.66756970473307 48.43236714739431 22.923365679523126
