ITEM: TIMESTEP
110066
ITEM: NUMBER OF ATOMS
144
ITEM: BOX BOUNDS xy xz yz pp pp pp
0.0000000000000000e+00 1.8600812734259765e+01 4.9602167291359365e+00
0.0000000000000000e+00 4.6029234426340381e+01 3.7201625468519577e+00
0.0000000000000000e+00 2.2734580741297954e+01 3.4937852636860775e+01
ITEM: ATOMS id type x y z c_peatom
70 2 0 0 0 -3.36104
69 2 4.96022 0 0 -3.36104
81 2 6.61362 3.69713 0 -3.34541
82 2 11.5738 3.69713 0 -3.35915
80 2 4.13351 4.80627 0.905608 -3.35035
86 1 4.22261 7.08465 2.97613 -3.37204
89 1 1.76521 8.20049 3.91524 -3.32362
88 1 6.76139 8.39512 3.82062 -3.30278
91 2 9.09373 4.80627 0.905608 -3.33545
93 1 6.66042 5.98173 2.00699 -3.32735
94 2 5.78692 8.50339 0.905608 -3.35091
95 2 8.26703 7.39425 0 -3.35915
92 1 9.16105 7.18041 2.82873 -3.27284
76 1 11.5943 5.98766 1.8114 -3.33337
96 2 13.2272 7.39425 0 -3.34541
104 2 10.7471 8.50339 0.905608 -3.34147
90 1 3.30763 9.5977 1.89866 -3.35426
103 1 3.30218 11.9096 3.69084 -3.31871
68 2 7.44033 12.2005 0.905608 -3.36186
100 1 5.77483 10.7893 2.72983 -3.34215
102 1 8.26882 11.7668 3.56664 -3.32388
106 1 8.26936 9.61562 1.78628 -3.33218
77 2 12.4005 12.2005 0.905608 -3.36904
79 1 9.92158 13.2639 1.78659 -3.36007
105 1 10.7582 10.6633 2.74678 -3.34
108 1 10.7821 12.8628 4.48264 -3.28436
67 1 14.8382 13.348 1.81928 -3.38567
72 1 7.36018 14.3832 2.63066 -3.34518
73 1 7.35584 16.4976 4.40288 -3.16684
74 1 9.81984 15.3851 3.52776 -3.28873
78 1 12.3909 14.4597 2.77887 -3.31797
75 1 14.7737 15.7031 3.65007 -3.16844
87 1 4.3064 9.52014 4.78216 -3.33334
1 1 4.28691 11.8513 6.62389 -3.32152
83 1 1.83196 10.582 5.74889 -3.34523
9 1 1.88124 12.8643 7.66245 -3.2825
101 1 5.67812 13.0783 4.54531 -3.2622
3 1 6.79151 13.0044 7.56944 -3.33004
99 1 6.81146 10.7143 5.69895 -3.34275
109 1 8.17763 13.835 5.23846 -3.21432
98 1 9.25049 9.42045 4.82056 -3.32443
2 1 9.33237 11.8091 6.69014 -3.36832
6 1 4.31956 14.0517 8.57573 -3.25062
14 1 7.69453 15.723 7.01148 -3.21862
15 1 5.09409 16.5513 7.65508 -3.16762
16 1 7.61029 17.868 8.68998 -3.35993
85 1 8.53783 18.2707 5.99262 -3.27148
4 1 9.28951 14.078 8.64114 -3.35162
84 1 11.0147 17.158 5.07107 -3.15622
97 1 13.268 14.5094 5.68962 -3.15471
5 1 10.5039 14.7799 6.29568 -3.17642
17 1 12.6347 17.817 8.58334 -3.31385
20 1 10.1272 16.861 7.8398 -3.27594
71 1 13.5538 17.8905 5.69869 -3.14487
35 1 5.976 19.1759 6.78383 -3.29665
36 1 5.9908 21.4648 8.61192 -3.34898
44 1 8.49087 20.4257 7.71452 -3.35349
21 1 11.0321 19.3366 6.77073 -3.31307
22 1 13.4501 20.3545 7.64476 -3.34838
41 1 10.9557 21.5503 8.5817 -3.35275
8 2 4.34019 16.3598 10.4617 -3.35171
7 1 1.86708 15.222 9.45135 -3.32763
10 2 9.30041 16.3598 10.4617 -3.37994
13 1 6.80497 15.2169 9.57321 -3.34259
31 2 7.647 20.0569 10.4617 -3.35605
32 2 5.16689 21.1661 11.3673 -3.37165
33 2 7.647 22.2752 12.2729 -3.36189
34 1 5.14838 18.9096 9.52585 -3.37539
42 1 8.48167 22.6176 9.54801 -3.3504
18 1 10.1413 18.9927 9.55828 -3.36054
19 2 12.6072 20.0569 10.4617 -3.35674
37 2 12.6072 22.2752 12.2729 -3.36429
40 2 10.1271 21.1661 11.3673 -3.3443
46 1 13.423 22.6197 9.48891 -3.35824
52 1 5.15893 23.4116 13.1866 -3.3504
53 2 5.9936 23.754 10.4617 -3.36189
54 2 5.9936 25.9723 12.2729 -3.35605
58 1 8.49221 27.1197 13.2087 -3.37539
60 2 8.4737 24.8632 11.3673 -3.37165
38 1 10.138 23.4096 13.2457 -3.35824
43 2 10.9538 23.754 10.4617 -3.36429
45 2 13.4339 24.8632 11.3673 -3.3443
57 2 10.9538 25.9723 12.2729 -3.35674
62 1 13.4198 27.0366 13.1763 -3.36054
23 2 9.30041 29.6694 12.2729 -3.35171
26 2 6.8203 28.5603 11.3673 -3.37543
24 1 6.83563 30.8123 13.1614 -3.34259
11 2 11.7805 28.5603 11.3673 -3.37543
30 1 11.7735 30.8073 13.2832 -3.32763
12 2 14.2606 29.6694 12.2729 -3.37994
49 1 7.6498 24.5645 14.1227 -3.34898
50 1 5.14973 25.6035 15.0201 -3.35349
51 1 7.6646 26.8534 15.9508 -3.29665
39 1 12.6054 24.479 14.1529 -3.35275
55 1 12.5289 26.6926 15.9638 -3.31307
56 1 10.1109 25.6748 15.0898 -3.34838
63 1 6.03031 28.1612 14.0446 -3.35993
64 1 5.94607 30.3063 15.7231 -3.21862
66 1 8.54651 29.478 15.0795 -3.16762
107 1 5.10277 27.7586 16.742 -3.27148
25 1 9.32104 31.9776 14.1588 -3.25062
111 1 6.28475 29.5316 18.3317 -3.16684
117 1 10.0072 28.1387 17.0359 -3.14487
59 1 10.9263 28.2122 14.1512 -3.31385
61 1 13.4338 29.1682 14.8948 -3.27594
65 1 13.0571 31.2493 16.4389 -3.17642
129 1 10.293 31.5198 17.045 -3.15471
116 1 12.5464 28.8712 17.6635 -3.15622
27 1 14.2715 31.9513 14.0934 -3.35162
115 1 5.46297 32.1942 17.4961 -3.21432
123 1 7.96248 32.9509 18.1893 -3.2622
47 1 9.35369 34.178 16.1107 -3.32152
127 1 6.82913 35.3149 17.0356 -3.34275
135 1 9.3342 36.5091 17.9524 -3.33334
28 1 11.7594 33.165 15.0721 -3.2825
140 1 11.8086 35.4472 16.9857 -3.34523
48 1 16.7695 33.0248 15.1651 -3.33004
29 1 14.2287 34.2202 16.0444 -3.36832
139 1 14.3105 36.6088 17.914 -3.32443
114 1 3.82075 30.6441 19.2068 -3.28873
113 1 8.78732 30.3261 19.0845 -3.16844
112 1 6.28042 31.646 20.1039 -3.34518
120 1 11.1701 31.5695 19.9557 -3.31797
110 1 3.71902 32.7653 20.948 -3.36007
118 2 6.20027 33.8287 21.829 -3.36186
122 1 8.72281 32.6812 20.9153 -3.38567
124 1 7.86577 35.24 20.0048 -3.34215
126 1 5.37177 34.2624 19.1679 -3.32388
119 1 5.37123 36.4136 20.9483 -3.33218
128 1 12.7789 33.1664 18.2519 -3.28436
121 2 11.1605 33.8287 21.829 -3.36904
125 1 10.3384 34.1197 19.0437 -3.31871
132 1 12.8028 35.366 19.9878 -3.34
134 1 10.333 36.4315 20.8359 -3.35426
130 2 7.85368 37.5258 21.829 -3.35091
138 1 6.8792 37.6341 18.914 -3.30278
136 1 9.41799 38.9446 19.7585 -3.37204
133 2 12.8139 37.5258 21.829 -3.34147
137 1 11.8754 37.8287 18.8193 -3.32362
141 2 9.50708 41.223 21.829 -3.35035
144 1 11.9667 40.0416 20.9232 -3.33337
131 1 16.9006 40.0475 20.7276 -3.32735
142 1 14.4 38.8488 19.9059 -3.27284
143 2 14.4673 41.223 21.829 -3.33545
