ITEM: TIMESTEP
48
ITEM: NUMBER OF ATOMS
144
ITEM: BOX BOUNDS xy xz yz pp pp pp
0.0000000000000000e+00 2.1700948189969726e+01 4.9602167291359365e+00
0.0000000000000000e+00 3.9097120807915630e+01 6.8202980025619171e+00
0.0000000000000000e+00 2.5734580741297954e+01 2.8005739018436021e+01
ITEM: ATOMS id type x y z c_peatom
68 2 2.48011 1.10914 0.905608 -3.34908
69 2 4.96022 0 0 -3.34724
70 2 0 0 0 -3.34724
72 1 2.52149 3.40568 2.8602 -3.3653
74 1 4.95072 4.53354 3.80003 -3.28421
79 1 4.99506 2.259 1.92999 -3.38382
80 2 4.13351 4.80627 0.905608 -3.34063
67 1 9.95527 2.259 1.92999 -3.38382
75 1 9.91094 4.53354 3.80003 -3.28421
77 2 7.44033 1.10914 0.905608 -3.34908
78 1 7.48171 3.40568 2.8602 -3.3653
81 2 6.61362 3.69713 0 -3.34465
91 2 9.09373 4.80627 0.905608 -3.34063
82 2 11.5738 3.69713 0 -3.34465
73 1 2.4104 5.57875 4.8646 -3.10023
86 1 4.08321 7.05568 2.8906 -3.36918
87 1 4.03956 9.33391 4.74188 -3.11699
84 1 7.37062 5.57875 4.8646 -3.10023
88 1 6.53137 8.17392 3.79807 -3.32828
92 1 9.04342 7.05568 2.8906 -3.36918
93 1 6.60134 5.94576 1.94166 -3.36595
94 2 5.78692 8.50339 0.905608 -3.3448
95 2 8.26703 7.39425 0 -3.34465
98 1 8.99978 9.33391 4.74188 -3.11699
104 2 10.7471 8.50339 0.905608 -3.3448
106 1 8.28525 9.62767 1.93394 -3.37767
76 1 11.5616 5.94576 1.94166 -3.36595
89 1 11.4916 8.17392 3.79807 -3.32828
90 1 13.2455 9.62767 1.93394 -3.37767
96 2 13.2272 7.39425 0 -3.34465
100 1 5.83347 10.7596 2.8505 -3.38061
101 1 5.98753 13.0486 4.70248 -3.09054
102 1 8.36358 11.9043 3.75513 -3.31132
105 1 10.7937 10.7596 2.8505 -3.38061
108 1 10.9477 13.0486 4.70248 -3.09054
103 1 13.3238 11.9043 3.75513 -3.31132
5 1 4.12576 12.1109 8.10723 -2.86961
17 1 4.15099 14.3619 10.0518 -3.33146
14 1 9.08598 12.1109 8.10723 -2.86961
15 1 6.60652 13.197 9.12401 -3.12108
16 1 9.11121 14.3619 10.0518 -3.33146
99 1 6.50806 10.4308 5.73765 -2.87556
109 1 8.54689 14.0802 5.77186 -2.9052
20 1 11.5667 13.197 9.12401 -3.12108
83 1 11.4683 10.4308 5.73765 -2.87556
97 1 13.5071 14.0802 5.77186 -2.9052
1 1 11.0823 19.5214 8.08078 -2.92191
35 1 7.42362 15.7622 8.00794 -2.86544
36 1 7.52531 18.0017 10.0562 -3.29534
44 1 9.92957 16.9411 9.00545 -3.09979
85 1 9.81759 17.8727 5.86422 -2.86797
2 1 16.0426 19.5214 8.08078 -2.92191
21 1 12.3838 15.7622 8.00794 -2.86544
22 1 14.8898 16.9411 9.00545 -3.09979
41 1 12.4855 18.0017 10.0562 -3.29534
71 1 14.7778 17.8727 5.86422 -2.86797
6 1 10.9218 21.7202 10.0828 -3.32149
9 1 8.52342 20.5807 9.15609 -3.10224
3 1 13.4836 20.5807 9.15609 -3.10224
4 1 15.882 21.7202 10.0828 -3.32149
12 2 10.8505 15.112 13.7729 -3.38034
23 2 5.89026 15.112 13.7729 -3.38034
30 1 8.34062 16.2347 14.7522 -3.38915
31 2 9.19707 16.5909 11.9617 -3.37087
32 2 6.71696 17.7 12.8673 -3.35941
33 2 9.19707 18.8091 13.7729 -3.38638
34 1 6.66577 15.469 10.9467 -3.38211
42 1 10.0444 19.1263 10.9672 -3.37433
18 1 11.626 15.469 10.9467 -3.38211
19 2 14.1573 16.5909 11.9617 -3.37087
24 1 13.3008 16.2347 14.7522 -3.38915
37 2 14.1573 18.8091 13.7729 -3.38638
40 2 11.6772 17.7 12.8673 -3.35941
46 1 15.0046 19.1263 10.9672 -3.37433
7 1 8.40011 22.8624 10.9824 -3.38915
8 2 10.8505 23.9851 11.9617 -3.38034
52 1 6.69633 19.9709 14.7673 -3.37433
53 2 7.54366 20.288 11.9617 -3.38638
54 2 7.54366 22.5063 13.7729 -3.37087
58 1 10.075 23.6281 14.7879 -3.38211
60 2 10.0238 21.3971 12.8673 -3.35941
10 2 15.8107 23.9851 11.9617 -3.38034
13 1 13.3603 22.8624 10.9824 -3.38915
38 1 11.6566 19.9709 14.7673 -3.37433
43 2 12.5039 20.288 11.9617 -3.38638
45 2 14.984 21.3971 12.8673 -3.35941
57 2 12.5039 22.5063 13.7729 -3.37087
62 1 15.0352 23.6281 14.7879 -3.38211
26 2 8.37037 25.0943 12.8673 -3.36167
11 2 13.3306 25.0943 12.8673 -3.36167
25 1 5.81892 17.3769 15.6518 -3.32149
27 1 10.7791 17.3769 15.6518 -3.32149
28 1 8.21731 18.5164 16.5785 -3.10224
48 1 13.1775 18.5164 16.5785 -3.10224
29 1 10.6186 19.5757 17.6538 -2.92191
47 1 5.65839 19.5757 17.6538 -2.92191
49 1 9.21542 21.0954 15.6783 -3.29534
50 1 6.81117 22.1561 16.7291 -3.09979
51 1 9.31711 23.335 17.7266 -2.86544
107 1 6.92314 21.2244 19.8704 -2.86797
39 1 14.1756 21.0954 15.6783 -3.29534
55 1 14.2773 23.335 17.7266 -2.86544
56 1 11.7714 22.1561 16.7291 -3.09979
117 1 11.8834 21.2244 19.8704 -2.86797
66 1 10.1342 25.9002 16.6106 -3.12108
115 1 8.19384 25.0169 19.9627 -2.9052
127 1 10.2327 28.6663 19.9969 -2.87556
59 1 12.5897 24.7353 15.6828 -3.33146
61 1 15.0944 25.9002 16.6106 -3.12108
65 1 12.615 26.9862 17.6273 -2.86961
129 1 13.1541 25.0169 19.9627 -2.9052
140 1 15.1929 28.6663 19.9969 -2.87556
63 1 17.55 24.7353 15.6828 -3.33146
64 1 17.5752 26.9862 17.6273 -2.86961
126 1 8.37715 27.1928 21.9794 -3.31132
123 1 10.7532 26.0485 21.0321 -3.09054
124 1 10.9073 28.3375 22.8841 -3.38061
125 1 13.3374 27.1928 21.9794 -3.31132
128 1 15.7134 26.0485 21.0321 -3.09054
132 1 15.8675 28.3375 22.8841 -3.38061
119 1 8.45548 29.4694 23.8006 -3.37767
131 1 10.1394 33.1514 23.7929 -3.36595
138 1 10.2094 30.9232 21.9365 -3.32828
111 1 14.3303 33.5184 20.87 -3.10023
130 2 10.9538 30.5937 24.829 -3.3448
133 2 15.914 30.5937 24.829 -3.3448
134 1 13.4157 29.4694 23.8006 -3.37767
135 1 12.7012 29.7632 20.9927 -3.11699
136 1 12.6575 32.0414 22.844 -3.36918
137 1 15.1696 30.9232 21.9365 -3.32828
144 1 15.0996 33.1514 23.7929 -3.36595
116 1 19.2905 33.5184 20.87 -3.10023
139 1 17.6614 29.7632 20.9927 -3.11699
142 1 17.6177 32.0414 22.844 -3.36918
110 1 11.7457 36.8381 23.8046 -3.38382
112 1 14.2192 35.6914 22.8744 -3.3653
114 1 11.79 34.5636 21.9346 -3.28421
118 2 14.2606 37.988 24.829 -3.34908
141 2 12.6072 34.2909 24.829 -3.34063
113 1 16.7502 34.5636 21.9346 -3.28421
120 1 19.1795 35.6914 22.8744 -3.3653
121 2 19.2208 37.988 24.829 -3.34908
122 1 16.7059 36.8381 23.8046 -3.38382
143 2 17.5674 34.2909 24.829 -3.34063
