LAMMPS (29 Aug 2024 - Update 2)
#---------------------------------------------------------------------------------------------------
# Initilise important features of simulation
#---------------------------------------------------------------------------------------------------
units 		metal	# Use metals units (Ang, ps, eV, bar, etc.)
dimension 	3		# Run the simulation in three dimensions
boundary 	p p p	# Use periodic boundaries in all three dimensions
atom_style 	atomic	#
#box tilt large		# Allow larger than normal tilt factors

variable T_start equal 600
variable T_end equal 200
variable tstep equal 0.002
timestep ${tstep}
timestep 0.002

read_data   lammps.txt	# Read in atom coordinates from a file
Reading data file ...
  triclinic box = (0 0 0) to (9.9204335 11.091382 24.734581) with tilt (4.9602167 11.780515 44.642812)
WARNING: Triclinic box skew is large. LAMMPS will run inefficiently. (src/domain.cpp:221)
  1 by 1 by 1 MPI processor grid
  reading atoms ...
  144 atoms
  read_data CPU = 0.001 seconds

#---------------------------------------------------------------------------------------------------
# Define how the forces between the atoms will be modelled
#---------------------------------------------------------------------------------------------------
pair_style eam/alloy
pair_coeff * * Zope-Ti-Al-2003.eam.alloy.txt Al Al

#---------------------------------------------------------------------------------------------------
# Set behaviour of simulation
#---------------------------------------------------------------------------------------------------
group g_fixed type 2
36 atoms in group g_fixed
group g_other type 1
108 atoms in group g_other
fix f_freeze g_fixed setforce 0.0 0.0 0.0 	# Hold atoms of type 2 fixed in place
#fix f_constrain g_other setforce 0.0 0.0 NULL 	# All atoms of type 1 to move only in z direction

#---------------------------------------------------------------------------------------------------
# Specify what information to write out
#---------------------------------------------------------------------------------------------------
thermo_style custom step atoms temp pe ke etotal fmax
thermo_modify format 6 %20.10f
thermo 1000

#compute statom all stress/atom NULL
compute peatom all pe/atom
dump 1 all custom 100000 dump.* id type x y z c_peatom
dump_modify 1 first yes


#---------------------------------------------------------------------------------------------------
# Initial relaxation
#---------------------------------------------------------------------------------------------------
velocity all set 0.0 0.0 0.0

min_style 	cg
min_modify dmax 0.1
minimize 	0.0 1.0e-6 10000 100000
Neighbor list info ...
  update: every = 1 steps, delay = 0 steps, check = yes
  max neighbors/atom: 2000, page size: 100000
  master list distance cutoff = 8.724884
  ghost atom cutoff = 8.724884
  binsize = 4.362442, bins = 7 13 6
  1 neighbor lists, perpetual/occasional/extra = 1 0 0
  (1) pair eam/alloy, perpetual
      attributes: half, newton on
      pair build: half/bin/atomonly/newton/tri
      stencil: half/bin/3d/tri
      bin: standard
Per MPI rank memory allocation (min/avg/max) = 4.675 | 4.675 | 4.675 Mbytes
   Step        Atoms         Temp          PotEng         KinEng         TotEng          Fmax     
         0         144   0             -459.10343      0                  -459.1034278944  2.7063513    
        53         144   0             -468.57546      0                  -468.5754611694  9.6954038e-08
Loop time of 0.00877292 on 1 procs for 53 steps with 144 atoms

95.8% CPU use with 1 MPI tasks x no OpenMP threads

Minimization stats:
  Stopping criterion = force tolerance
  Energy initial, next-to-last, final = 
     -459.103427894444  -468.575461169381  -468.575461169381
  Force two-norm initial, final = 9.7946238 7.2649643e-07
  Force max component initial, final = 2.7063513 9.6954038e-08
  Final line search alpha, max atom move = 1 9.6954038e-08
  Iterations, force evaluations = 53 99

MPI task timing breakdown:
Section |  min time  |  avg time  |  max time  |%varavg| %total
---------------------------------------------------------------
Pair    | 0.0075625  | 0.0075625  | 0.0075625  |   0.0 | 86.20
Neigh   | 0          | 0          | 0          |   0.0 |  0.00
Comm    | 0.00049287 | 0.00049287 | 0.00049287 |   0.0 |  5.62
Output  | 0          | 0          | 0          |   0.0 |  0.00
Modify  | 1.5379e-05 | 1.5379e-05 | 1.5379e-05 |   0.0 |  0.18
Other   |            | 0.0007022  |            |       |  8.00

Nlocal:            144 ave         144 max         144 min
Histogram: 1 0 0 0 0 0 0 0 0 0
Nghost:           2908 ave        2908 max        2908 min
Histogram: 1 0 0 0 0 0 0 0 0 0
Neighs:          10904 ave       10904 max       10904 min
Histogram: 1 0 0 0 0 0 0 0 0 0

Total # of neighbors = 10904
Ave neighs/atom = 75.722222
Neighbor list builds = 0
Dangerous builds = 0
#---------------------------------------------------------------------------------------------------
# Anneal boundary structures
#---------------------------------------------------------------------------------------------------
reset_timestep 100000
fix md g_other nvt temp ${T_start} ${T_end} $(100.0*v_tstep)
fix md g_other nvt temp 600 ${T_end} $(100.0*v_tstep)
fix md g_other nvt temp 600 200 $(100.0*v_tstep)
fix md g_other nvt temp 600 200 0.2000000000000000111

velocity all create ${T_start} 4928459 rot yes mom yes dist gaussian
velocity all create 600 4928459 rot yes mom yes dist gaussian
run 10000
Per MPI rank memory allocation (min/avg/max) = 4.951 | 4.951 | 4.951 Mbytes
   Step        Atoms         Temp          PotEng         KinEng         TotEng          Fmax     
    100000         144   600           -468.57546      11.09052           -457.4849407284  9.6954049e-08
    101000         144   589.11678     -463.35742      10.889353          -452.4680667699  1.3838854    
    102000         144   538.81482     -462.81705      9.9595613          -452.8574910077  1.2411591    
    103000         144   511.76972     -465.01584      9.4596543          -455.5561874728  0.99988337   
    104000         144   520.86978     -466.27011      9.6278617          -456.6422484248  1.1454883    
    105000         144   477.14137     -466.42035      8.8195768          -457.6007758394  1.2292306    
    106000         144   434.24916     -467.08747      8.0267487          -459.0607198166  1.2339678    
    107000         144   421.27497     -468.42611      7.7869311          -460.6391824327  0.9195871    
    108000         144   366.59959     -468.69985      6.7763004          -461.9235477314  0.97160788   
    109000         144   375.10471     -469.32611      6.9335107          -462.3925989329  0.85619837   
    110000         144   339.60641     -468.92936      6.2773531          -462.6520021224  0.83514188   
Loop time of 0.862841 on 1 procs for 10000 steps with 144 atoms

Performance: 2002.686 ns/day, 0.012 hours/ns, 11589.616 timesteps/s, 1.669 Matom-step/s
99.3% CPU use with 1 MPI tasks x no OpenMP threads

MPI task timing breakdown:
Section |  min time  |  avg time  |  max time  |%varavg| %total
---------------------------------------------------------------
Pair    | 0.7424     | 0.7424     | 0.7424     |   0.0 | 86.04
Neigh   | 0.043308   | 0.043308   | 0.043308   |   0.0 |  5.02
Comm    | 0.053635   | 0.053635   | 0.053635   |   0.0 |  6.22
Output  | 9.104e-05  | 9.104e-05  | 9.104e-05  |   0.0 |  0.01
Modify  | 0.011085   | 0.011085   | 0.011085   |   0.0 |  1.28
Other   |            | 0.01232    |            |       |  1.43

Nlocal:            144 ave         144 max         144 min
Histogram: 1 0 0 0 0 0 0 0 0 0
Nghost:           3034 ave        3034 max        3034 min
Histogram: 1 0 0 0 0 0 0 0 0 0
Neighs:          10589 ave       10589 max       10589 min
Histogram: 1 0 0 0 0 0 0 0 0 0

Total # of neighbors = 10589
Ave neighs/atom = 73.534722
Neighbor list builds = 96
Dangerous builds = 0
unfix md

#---------------------------------------------------------------------------------------------------
# Final relaxation
#---------------------------------------------------------------------------------------------------
velocity all set 0.0 0.0 0.0

min_style 	cg
min_modify dmax 0.1
minimize 	0.0 1.0e-6 10000 100000
Per MPI rank memory allocation (min/avg/max) = 6.076 | 6.076 | 6.076 Mbytes
   Step        Atoms         Temp          PotEng         KinEng         TotEng          Fmax     
    110000         144   0             -468.92936      0                  -468.9293552668  0.83514188   
    110048         144   0             -472.49147      0                  -472.4914670601  2.0253021e-07
Loop time of 0.00856946 on 1 procs for 48 steps with 144 atoms

93.1% CPU use with 1 MPI tasks x no OpenMP threads

Minimization stats:
  Stopping criterion = force tolerance
  Energy initial, next-to-last, final = 
     -468.929355266774  -472.491467060136  -472.491467060137
  Force two-norm initial, final = 4.9587356 9.1039973e-07
  Force max component initial, final = 0.83514188 2.0253021e-07
  Final line search alpha, max atom move = 1 2.0253021e-07
  Iterations, force evaluations = 48 90

MPI task timing breakdown:
Section |  min time  |  avg time  |  max time  |%varavg| %total
---------------------------------------------------------------
Pair    | 0.0071803  | 0.0071803  | 0.0071803  |   0.0 | 83.79
Neigh   | 0          | 0          | 0          |   0.0 |  0.00
Comm    | 0.00047397 | 0.00047397 | 0.00047397 |   0.0 |  5.53
Output  | 0          | 0          | 0          |   0.0 |  0.00
Modify  | 1.4625e-05 | 1.4625e-05 | 1.4625e-05 |   0.0 |  0.17
Other   |            | 0.0009005  |            |       | 10.51

Nlocal:            144 ave         144 max         144 min
Histogram: 1 0 0 0 0 0 0 0 0 0
Nghost:           3031 ave        3031 max        3031 min
Histogram: 1 0 0 0 0 0 0 0 0 0
Neighs:          10594 ave       10594 max       10594 min
Histogram: 1 0 0 0 0 0 0 0 0 0

Total # of neighbors = 10594
Ave neighs/atom = 73.569444
Neighbor list builds = 0
Dangerous builds = 0

Total wall time: 0:00:00
