#Lammps coordinate file for CSL - Axis: [1 1 1]  Angle: (1, 3) -> 59.99999999999999  Plane indices: [0 1 1]  z-position: [6.4336451853244885 19.300935555973464]  Repeats: 1 1 (3, 3) (black, white)  Fixed: 2.228  Boundary equiv: True
144 atoms

2 atom types

0.0 9.920433458271871 xlo xhi
0.0 11.091381789479609 ylo yhi
0.0 25.734580741297954 zlo zhi
4.9602167291359365 9.920433458271877 32.16500718949087 xy xz yz

Atoms

1 1 7.440325093703905 10.53681270000563 8.339252716211904
2 1 12.400541822839838 10.53681270000563 8.339252716211904
3 1 9.920433458271873 11.64595087895359 9.24486024709932
4 1 12.400541822839838 12.755089057901552 10.150467777986734
5 1 15.707352975597129 14.233939963165499 8.339252716211904
6 1 7.440325093703905 12.755089057901552 10.150467777986734
7 1 4.960216729135937 13.864227236849514 11.05607530887415
8 2 7.440325093703905 14.973365415797474 11.961682839761563
9 1 4.960216729135937 11.645950878953592 9.244860247099318
10 2 12.400541822839838 14.973365415797474 11.961682839761563
11 2 9.920433458271873 16.082503594745436 12.867290370648979
12 2 12.40054182283984 17.191641773693398 13.772897901536393
13 1 9.920433458271873 13.864227236849514 11.05607530887415
14 1 10.747136246461192 14.233939963165499 8.339252716211904
15 1 8.267027881893227 15.34307814211346 9.244860247099318
16 1 10.747136246461194 16.452216321061425 10.150467777986734
17 1 15.707352975597129 16.45221632106142 10.150467777986734
18 1 13.227244611029164 17.561354500009383 11.05607530887415
19 2 15.707352975597132 18.670492678957345 11.961682839761563
20 1 13.22724461102916 15.34307814211346 9.24486024709932
21 1 14.053947399218487 17.93106722632537 8.339252716211902
22 1 16.534055763786455 19.040205405273333 9.244860247099318
23 2 7.440325093703906 17.191641773693398 13.772897901536393
24 1 4.960216729135938 18.30077995264136 14.678505432423808
25 1 7.440325093703906 19.409918131589322 15.584112963311222
26 2 4.960216729135938 16.082503594745436 12.867290370648979
27 1 12.400541822839841 19.409918131589322 15.584112963311222
28 1 9.920433458271873 20.51905631053728 16.489720494198636
29 1 12.400541822839841 21.628194489485242 17.39532802508605
30 1 9.920433458271873 18.30077995264136 14.678505432423808
31 2 10.747136246461196 18.670492678957345 11.961682839761563
32 2 8.267027881893227 19.779630857905307 12.867290370648979
33 2 10.747136246461196 20.88876903685327 13.772897901536393
34 1 8.267027881893227 17.561354500009386 11.05607530887415
35 1 9.09373067008255 17.93106722632537 8.339252716211902
36 1 9.09373067008255 20.149343584221295 10.150467777986734
37 2 15.707352975597132 20.88876903685327 13.772897901536393
38 1 13.227244611029164 21.99790721580123 14.678505432423808
39 1 15.707352975597132 23.107045394749193 15.584112963311224
40 2 13.227244611029164 19.779630857905307 12.867290370648979
41 1 14.053947399218487 20.149343584221292 10.150467777986734
42 1 11.573839034650518 21.258481763169257 11.05607530887415
43 2 14.053947399218487 22.367619942117216 11.961682839761563
44 1 11.573839034650518 19.040205405273333 9.244860247099318
45 2 16.534055763786455 23.476758121065178 12.867290370648977
46 1 16.534055763786455 21.258481763169254 11.05607530887415
47 1 7.4403250937039065 21.628194489485246 17.39532802508605
48 1 4.960216729135939 20.519056310537284 16.489720494198636
49 1 10.747136246461196 23.107045394749193 15.584112963311222
50 1 8.267027881893231 24.21618357369715 16.489720494198636
51 1 10.747136246461196 25.325321752645113 17.39532802508605
52 1 8.26702788189323 21.99790721580123 14.678505432423808
53 2 9.09373067008255 22.367619942117216 11.961682839761563
54 2 9.09373067008255 24.58589630001314 13.772897901536393
55 1 15.707352975597132 25.325321752645113 17.39532802508605
56 1 13.227244611029164 24.21618357369715 16.48972049419864
57 2 14.053947399218487 24.58589630001314 13.772897901536393
58 1 11.573839034650518 25.6950344789611 14.678505432423808
59 1 14.053947399218487 26.804172657909064 15.584112963311224
60 2 11.573839034650518 23.476758121065178 12.867290370648979
61 1 16.53405576378645 27.913310836857022 16.489720494198636
62 1 16.53405576378645 25.695034478961098 14.678505432423808
63 1 9.09373067008255 26.804172657909064 15.58411296331122
64 1 9.09373067008255 29.022449015804984 17.39532802508605
65 1 14.053947399218487 29.022449015804984 17.395328025086048
66 1 11.573839034650518 27.913310836857022 16.489720494198636
67 1 0.0 2.2182763578959226 1.8112150617748295
68 2 2.480108364567968 1.109138178947961 0.9056075308874145
69 2 4.960216729135936 -4.440892098500626e-16 -2.220446049250313e-16
70 2 0.0 0.0 0.0
71 1 8.881784197001252e-16 6.654829073687768 6.4336451853244885
72 1 2.480108364567968 3.327414536843884 2.7168225926622442
73 1 2.4801083645679682 5.545690894739806 4.528037654437074
74 1 4.960216729135936 4.436552715791845 3.622430123549659
75 1 8.881784197001252e-16 4.436552715791845 3.622430123549659
76 1 1.6534055763786455 5.915403621055794 1.811215061774829
77 2 7.440325093703903 1.109138178947961 0.9056075308874145
78 1 7.440325093703903 3.3274145368438837 2.7168225926622442
79 1 4.960216729135936 2.218276357895922 1.8112150617748293
80 2 4.133513940946613 4.806265442107832 0.9056075308874143
81 2 6.61362230551458 3.6971272631598704 -6.661338147750939e-16
82 2 1.6534055763786455 3.697127263159871 -2.220446049250313e-16
83 1 1.6534055763786455 10.351956336847639 6.4336451853244885
84 1 7.440325093703903 5.545690894739806 4.528037654437074
85 1 4.960216729135936 6.654829073687768 6.4336451853244885
86 1 4.133513940946613 7.024541800003755 2.7168225926622434
87 1 4.133513940946613 9.242818157899677 4.528037654437074
88 1 6.61362230551458 8.133679978951715 3.622430123549658
89 1 1.6534055763786455 8.133679978951717 3.622430123549658
90 1 3.3068111527572905 9.612530884215664 1.8112150617748288
91 2 9.093730670082548 4.806265442107832 0.9056075308874141
92 1 9.093730670082547 7.024541800003755 2.7168225926622434
93 1 6.61362230551458 5.915403621055793 1.8112150617748288
94 2 5.7869195173252574 8.503392705267704 0.9056075308874139
95 2 8.267027881893226 7.394254526319742 -1.1102230246251565e-15
96 2 3.3068111527572905 7.394254526319742 -6.661338147750939e-16
97 1 3.306811152757291 14.04908360000751 6.433645185324488
98 1 9.093730670082547 9.242818157899677 4.528037654437074
99 1 6.613622305514581 10.351956336847639 6.4336451853244885
100 1 5.786919517325258 10.721669063163626 2.7168225926622434
101 1 5.786919517325258 12.939945421059548 4.528037654437073
102 1 8.267027881893226 11.830807242111586 3.622430123549658
103 1 3.306811152757291 11.830807242111588 3.622430123549658
104 2 10.747136246461192 8.503392705267704 0.9056075308874136
105 1 10.747136246461192 10.721669063163626 2.7168225926622434
106 1 8.267027881893226 9.612530884215664 1.8112150617748286
107 1 9.920433458271873 25.51017811580311 19.300935555973467
108 1 10.747136246461192 12.939945421059548 4.528037654437073
109 1 8.267027881893226 14.04908360000751 6.433645185324488
110 1 9.920433458271873 29.946730831594955 23.923365679523123
111 1 12.40054182283984 26.619316294751073 21.20654308686088
112 1 12.400541822839841 28.837592652646997 23.01775814863571
113 1 14.88065018740781 27.728454473699035 22.112150617748295
114 1 9.920433458271873 27.728454473699035 22.112150617748295
115 1 11.573839034650518 29.20730537896298 19.300935555973464
116 1 17.360758551975774 26.619316294751073 21.20654308686088
117 1 14.88065018740781 25.51017811580311 19.300935555973464
118 2 12.400541822839841 31.055869010542917 24.82897321041054
119 1 11.573839034650518 33.643858094754826 23.923365679523123
120 1 17.360758551975774 28.837592652646993 23.017758148635707
121 2 17.360758551975778 31.055869010542917 24.82897321041054
122 1 14.88065018740781 29.946730831594955 23.923365679523126
123 1 14.053947399218487 30.316443557910944 21.20654308686088
124 1 14.053947399218487 32.53471991580687 23.01775814863571
125 1 16.534055763786455 31.425581736858906 22.112150617748295
126 1 11.573839034650518 31.425581736858906 22.112150617748295
127 1 13.227244611029164 32.90443264212285 19.300935555973464
128 1 19.014164128354423 30.316443557910944 21.20654308686088
129 1 16.534055763786455 29.20730537896298 19.300935555973464
130 2 14.053947399218487 34.752996273702784 24.82897321041054
131 1 13.227244611029164 37.3409853579147 23.923365679523123
132 1 19.014164128354423 32.53471991580686 23.017758148635707
133 2 19.014164128354423 34.752996273702784 24.82897321041054
134 1 16.534055763786455 33.643858094754826 23.923365679523126
135 1 15.707352975597132 34.013570821070815 21.20654308686088
136 1 15.707352975597132 36.23184717896674 23.01775814863571
137 1 18.1874613401651 35.12270900001877 22.112150617748295
138 1 13.227244611029164 35.12270900001877 22.112150617748295
139 1 20.66756970473307 34.013570821070815 21.20654308686088
140 1 18.1874613401651 32.90443264212285 19.300935555973464
141 2 15.707352975597132 38.45012353686266 24.82897321041054
142 1 20.66756970473307 36.23184717896673 23.017758148635707
143 2 20.66756970473307 38.45012353686266 24.82897321041054
144 1 18.1874613401651 37.3409853579147 23.923365679523126
