ITEM: TIMESTEP
0
ITEM: NUMBER OF ATOMS
144
ITEM: BOX BOUNDS xy xz yz pp pp pp
0.0000000000000000e+00 3.1001354557099610e+01 4.9602167291359365e+00
0.0000000000000000e+00 4.3256388978970477e+01 1.6120704369691801e+01
0.0000000000000000e+00 1.9734580741297954e+01 3.2165007189490872e+01
ITEM: ATOMS id type x y z c_peatom
70 2 0 0 0 -3.30648
82 2 1.65341 3.69713 0 -3.31186
69 2 4.96022 0 0 -3.30648
81 2 6.61362 3.69713 0 -3.31186
80 2 4.13351 4.80627 0.905608 -3.34342
86 1 4.13351 7.02454 2.71682 -3.30035
88 1 6.61362 8.13368 3.62243 -3.15668
93 1 6.61362 5.9154 1.81122 -3.34925
94 2 5.78692 8.50339 0.905608 -3.34068
95 2 8.26703 7.39425 0 -3.31186
76 1 11.5738 5.9154 1.81122 -3.34925
89 1 11.5738 8.13368 3.62243 -3.15668
91 2 9.09373 4.80627 0.905608 -3.34342
92 1 9.09373 7.02454 2.71682 -3.30035
96 2 13.2272 7.39425 0 -3.31186
98 1 9.09373 9.24282 4.52804 -2.87672
104 2 10.7471 8.50339 0.905608 -3.34068
87 1 14.0539 9.24282 4.52804 -2.87672
68 2 7.44033 12.2005 0.905608 -3.32829
100 1 5.78692 10.7217 2.71682 -3.26277
102 1 8.26703 11.8308 3.62243 -3.38136
106 1 8.26703 9.61253 1.81122 -3.35917
109 1 8.26703 14.0491 4.93365 2.90962
77 2 12.4005 12.2005 0.905608 -3.32829
79 1 9.92043 13.3097 1.81122 -3.35399
90 1 13.2272 9.61253 1.81122 -3.35917
97 1 13.2272 14.0491 4.93365 2.90962
103 1 13.2272 11.8308 3.62243 -3.38136
105 1 10.7471 10.7217 2.71682 -3.26277
108 1 10.7471 12.9399 4.52804 -3.28891
67 1 14.8807 13.3097 1.81122 -3.35399
101 1 15.7074 12.9399 4.52804 -3.28891
72 1 7.44033 14.4188 2.71682 -3.31809
74 1 9.92043 15.5279 3.62243 -3.24755
78 1 12.4005 14.4188 2.71682 -3.31809
84 1 12.4005 16.6371 4.52804 -1.9353
73 1 17.3608 16.6371 4.52804 -1.9353
75 1 14.8807 15.5279 3.62243 -3.24755
2 1 5.58024 10.5368 5.33925 0.175267
7 1 8.06035 13.8642 8.05608 -3.39277
9 1 8.06035 11.646 6.24486 -3.29974
99 1 6.61362 10.352 4.93365 0.222132
1 1 10.5405 10.5368 5.33925 0.175267
3 1 13.0206 11.646 6.24486 -3.29974
5 1 8.88705 14.2339 5.33925 2.80911
6 1 10.5405 12.7551 7.15047 -3.39386
13 1 13.0206 13.8642 8.05608 -3.39277
83 1 11.5738 10.352 4.93365 0.222132
4 1 15.5007 12.7551 7.15047 -3.39386
14 1 13.8473 14.2339 5.33925 2.80911
8 2 10.5405 14.9734 8.96168 -3.3083
15 1 11.3672 15.3431 6.24486 -3.34405
17 1 8.88705 16.4522 7.15047 -3.46664
22 1 9.71376 19.0402 6.24486 -2.50722
34 1 11.3672 17.5614 8.05608 -3.34707
35 1 12.1939 17.9311 5.33925 -1.61373
85 1 9.92043 17.7462 4.93365 -2.27389
10 2 15.5007 14.9734 8.96168 -3.3083
16 1 13.8473 16.4522 7.15047 -3.46664
18 1 16.3274 17.5614 8.05608 -3.34707
20 1 16.3274 15.3431 6.24486 -3.34405
21 1 17.1541 17.9311 5.33925 -1.61373
31 2 13.8473 18.6705 8.96168 -3.32732
44 1 14.674 19.0402 6.24486 -2.50722
71 1 14.8807 17.7462 4.93365 -2.27389
19 2 18.8075 18.6705 8.96168 -3.32732
36 1 12.1939 20.1493 7.15047 -3.42687
53 2 12.1939 22.3676 8.96168 -3.32992
41 1 17.1541 20.1493 7.15047 -3.42687
42 1 14.674 21.2585 8.05608 -3.3709
43 2 17.1541 22.3676 8.96168 -3.32992
46 1 19.6342 21.2585 8.05608 -3.3709
32 2 11.3672 19.7796 9.86729 -3.30298
52 1 11.3672 21.9979 11.6785 -3.3709
33 2 13.8473 20.8888 10.7729 -3.32992
38 1 16.3274 21.9979 11.6785 -3.3709
40 2 16.3274 19.7796 9.86729 -3.30298
49 1 13.8473 23.107 12.5841 -3.42687
60 2 14.674 23.4768 9.86729 -3.30298
37 2 18.8075 20.8888 10.7729 -3.32992
39 1 18.8075 23.107 12.5841 -3.42687
45 2 19.6342 23.4768 9.86729 -3.30298
54 2 12.1939 24.5859 10.7729 -3.32732
23 2 15.5007 28.283 10.7729 -3.3083
51 1 13.8473 25.3253 14.3953 -1.61373
56 1 16.3274 24.2162 13.4897 -2.50722
57 2 17.1541 24.5859 10.7729 -3.32732
58 1 14.674 25.695 11.6785 -3.34707
59 1 17.1541 26.8042 12.5841 -3.46664
66 1 14.674 27.9133 13.4897 -3.34405
11 2 17.9808 27.1739 9.86729 -3.29444
12 2 20.4609 28.283 10.7729 -3.3083
50 1 21.2876 24.2162 13.4897 -2.50722
55 1 18.8075 25.3253 14.3953 -1.61373
61 1 19.6342 27.9133 13.4897 -3.34405
62 1 19.6342 25.695 11.6785 -3.34707
63 1 22.1143 26.8042 12.5841 -3.46664
117 1 21.0809 25.5102 14.8009 -2.27389
26 2 22.941 27.1739 9.86729 -3.29444
25 1 15.5007 30.5013 12.5841 -3.39386
65 1 17.1541 29.0224 14.3953 2.80911
27 1 20.4609 30.5013 12.5841 -3.39386
28 1 17.9808 31.6104 13.4897 -3.29974
29 1 20.4609 32.7196 14.3953 0.175267
30 1 17.9808 29.3922 11.6785 -3.39277
64 1 22.1143 29.0224 14.3953 2.80911
115 1 17.7741 29.2073 14.8009 2.90962
127 1 19.4275 32.9044 14.8009 0.222132
24 1 22.941 29.3922 11.6785 -3.39277
47 1 25.4211 32.7196 14.3953 0.175267
48 1 22.941 31.6104 13.4897 -3.29974
129 1 22.7343 29.2073 14.8009 2.90962
140 1 24.3877 32.9044 14.8009 0.222132
107 1 16.1207 25.5102 14.8009 -2.27389
114 1 16.1207 27.7285 16.1122 -3.24755
116 1 13.6406 26.6193 15.2065 -1.9353
111 1 18.6008 26.6193 15.2065 -1.9353
113 1 21.0809 27.7285 16.1122 -3.24755
110 1 16.1207 29.9467 17.9234 -3.35399
128 1 15.294 30.3164 15.2065 -3.28891
112 1 18.6008 28.8376 17.0178 -3.31809
118 2 18.6008 31.0559 18.829 -3.32829
122 1 21.0809 29.9467 17.9234 -3.35399
123 1 20.2542 30.3164 15.2065 -3.28891
124 1 20.2542 32.5347 17.0178 -3.26277
126 1 17.7741 31.4256 16.1122 -3.38136
120 1 23.561 28.8376 17.0178 -3.31809
121 2 23.561 31.0559 18.829 -3.32829
125 1 22.7343 31.4256 16.1122 -3.38136
132 1 25.2144 32.5347 17.0178 -3.26277
139 1 16.9474 34.0136 15.2065 -2.87672
119 1 17.7741 33.6439 17.9234 -3.35917
130 2 20.2542 34.753 18.829 -3.34068
131 1 19.4275 37.341 17.9234 -3.34925
135 1 21.9076 34.0136 15.2065 -2.87672
136 1 21.9076 36.2318 17.0178 -3.30035
138 1 19.4275 35.1227 16.1122 -3.15668
133 2 25.2144 34.753 18.829 -3.34068
134 1 22.7343 33.6439 17.9234 -3.35917
137 1 24.3877 35.1227 16.1122 -3.15668
144 1 24.3877 37.341 17.9234 -3.34925
142 1 26.8678 36.2318 17.0178 -3.30035
141 2 21.9076 38.4501 18.829 -3.34342
143 2 26.8678 38.4501 18.829 -3.34342
