ITEM: TIMESTEP
0
ITEM: NUMBER OF ATOMS
144
ITEM: BOX BOUNDS xy xz yz pp pp pp
0.0000000000000000e+00 1.9220839825401757e+01 4.9602167291359365e+00
0.0000000000000000e+00 4.7415657150025339e+01 4.3401896379939497e+00
0.0000000000000000e+00 1.9734580741297954e+01 3.6324275360545727e+01
ITEM: ATOMS id type x y z c_peatom
70 2 0 0 0 -3.30446
69 2 4.96022 6.13057e-16 0 -3.30446
81 2 6.61362 3.69713 0 -3.31265
82 2 11.5738 3.69713 0 -3.31265
76 1 1.65341 5.9154 1.81122 -3.3707
80 2 4.13351 4.80627 0.905608 -3.35282
86 1 4.13351 7.02454 2.71682 -3.3158
87 1 4.13351 9.24282 4.52804 -2.68463
89 1 1.65341 8.13368 3.62243 -2.74689
88 1 6.61362 8.13368 3.62243 -2.74689
91 2 9.09373 4.80627 0.905608 -3.35282
92 1 9.09373 7.02454 2.71682 -3.3158
93 1 6.61362 5.9154 1.81122 -3.3707
94 2 5.78692 8.50339 0.905608 -3.36328
98 1 9.09373 9.24282 4.52804 -2.68463
96 2 13.2272 7.39425 0 -3.31265
104 2 10.7471 8.50339 0.905608 -3.36328
90 1 3.30681 9.61253 1.81122 -3.36946
103 1 3.30681 11.8308 3.62243 -3.22899
67 1 4.96022 13.3097 1.81122 -3.34514
68 2 7.44033 12.2005 0.905608 -3.32882
100 1 5.78692 10.7217 2.71682 -3.34473
101 1 5.78692 12.9399 4.52804 -1.55293
102 1 8.26703 11.8308 3.62243 -3.22899
106 1 8.26703 9.61253 1.81122 -3.36946
109 1 8.26703 14.0491 4.93365 -1.61307
77 2 12.4005 12.2005 0.905608 -3.32882
79 1 9.92043 13.3097 1.81122 -3.34514
97 1 13.2272 14.0491 4.93365 -1.61307
105 1 10.7471 10.7217 2.71682 -3.34473
108 1 10.7471 12.9399 4.52804 -1.55293
72 1 7.44033 14.4188 2.71682 -3.30616
73 1 7.44033 16.6371 4.52804 0.463232
75 1 4.96022 15.5279 3.62243 -3.38417
74 1 9.92043 15.5279 3.62243 -3.38417
78 1 12.4005 14.4188 2.71682 -3.30616
84 1 12.4005 16.6371 4.52804 0.463232
1 1 4.6502 12.6164 5.33925 -1.02779
2 1 9.61042 12.6164 5.33925 -1.02779
3 1 7.13031 13.7256 6.24486 -2.3937
99 1 6.61362 10.352 4.93365 -1.50544
9 1 12.0905 13.7256 6.24486 -2.3937
83 1 11.5738 10.352 4.93365 -1.50544
6 1 4.6502 14.8347 7.15047 -3.43496
8 2 4.6502 17.053 8.96168 -3.32842
4 1 9.61042 14.8347 7.15047 -3.43496
10 2 9.61042 17.053 8.96168 -3.32842
13 1 7.13031 15.9439 8.05608 -3.37039
14 1 7.95701 16.3136 5.33925 0.727095
15 1 5.47691 17.4227 6.24486 -1.74059
16 1 7.95701 18.5319 7.15047 -3.45638
71 1 4.96022 17.7462 4.93365 -1.35201
5 1 12.9172 16.3136 5.33925 0.727095
7 1 12.0905 15.9439 8.05608 -3.37039
17 1 12.9172 18.5319 7.15047 -3.45638
20 1 10.4371 17.4227 6.24486 -1.74059
85 1 9.92043 17.7462 4.93365 -1.35201
31 2 7.95701 20.7501 8.96168 -3.33282
34 1 5.47691 19.641 8.05608 -3.36712
35 1 6.30361 20.0107 5.33925 -1.21935
36 1 6.30361 22.229 7.15047 -3.32372
42 1 8.78372 23.3381 8.05608 -3.4058
44 1 8.78372 21.1198 6.24486 -2.82839
18 1 10.4371 19.641 8.05608 -3.36712
19 2 12.9172 20.7501 8.96168 -3.33282
21 1 11.2638 20.0107 5.33925 -1.21935
22 1 13.7439 21.1198 6.24486 -2.82839
41 1 11.2638 22.229 7.15047 -3.32372
46 1 13.7439 23.3381 8.05608 -3.4058
53 2 6.30361 24.4473 8.96168 -3.3403
43 2 11.2638 24.4473 8.96168 -3.3403
32 2 5.47691 21.8593 9.86729 -3.32094
33 2 7.95701 22.9684 10.7729 -3.3403
37 2 12.9172 22.9684 10.7729 -3.3403
40 2 10.4371 21.8593 9.86729 -3.32094
49 1 7.95701 25.1867 12.5841 -3.32372
50 1 5.47691 26.2958 13.4897 -2.82839
51 1 7.95701 27.405 14.3953 -1.21935
52 1 5.47691 24.0775 11.6785 -3.4058
54 2 6.30361 26.6655 10.7729 -3.33282
58 1 8.78372 27.7747 11.6785 -3.36712
60 2 8.78372 25.5564 9.86729 -3.32094
38 1 10.4371 24.0775 11.6785 -3.4058
39 1 12.9172 25.1867 12.5841 -3.32372
45 2 13.7439 25.5564 9.86729 -3.32094
55 1 12.9172 27.405 14.3953 -1.21935
56 1 10.4371 26.2958 13.4897 -2.82839
57 2 11.2638 26.6655 10.7729 -3.33282
62 1 13.7439 27.7747 11.6785 -3.36712
24 1 7.13031 31.4718 11.6785 -3.37039
26 2 7.13031 29.2535 9.86729 -3.29987
63 1 6.30361 28.8838 12.5841 -3.45638
64 1 6.30361 31.1021 14.3953 0.727095
66 1 8.78372 29.9929 13.4897 -1.74059
117 1 9.30041 29.6694 14.8009 -1.35201
11 2 12.0905 29.2535 9.86729 -3.29987
23 2 9.61042 30.3627 10.7729 -3.32842
25 1 9.61042 32.5809 12.5841 -3.43496
30 1 12.0905 31.4718 11.6785 -3.37039
59 1 11.2638 28.8838 12.5841 -3.45638
61 1 13.7439 29.9929 13.4897 -1.74059
65 1 11.2638 31.1021 14.3953 0.727095
12 2 14.5706 30.3627 10.7729 -3.32842
27 1 14.5706 32.5809 12.5841 -3.43496
48 1 7.13031 33.6901 13.4897 -2.3937
28 1 12.0905 33.6901 13.4897 -2.3937
47 1 9.61042 34.7992 14.3953 -1.02779
129 1 10.9538 33.3666 14.8009 -1.61307
140 1 12.6072 37.0637 14.8009 -1.50544
29 1 14.5706 34.7992 14.3953 -1.02779
115 1 15.914 33.3666 14.8009 -1.61307
127 1 17.5674 37.0637 14.8009 -1.50544
107 1 4.34019 29.6694 14.8009 -1.35201
111 1 6.8203 30.7786 15.2065 0.463232
112 1 6.8203 32.9969 17.0178 -3.30616
113 1 9.30041 31.8877 16.1122 -3.38417
114 1 14.2606 31.8877 16.1122 -3.38417
116 1 11.7805 30.7786 15.2065 0.463232
120 1 11.7805 32.9969 17.0178 -3.30616
118 2 6.8203 35.2151 18.829 -3.32882
122 1 9.30041 34.106 17.9234 -3.34514
123 1 8.4737 34.4757 15.2065 -1.55293
124 1 8.4737 36.694 17.0178 -3.34473
110 1 14.2606 34.106 17.9234 -3.34514
121 2 11.7805 35.2151 18.829 -3.32882
125 1 10.9538 35.5848 16.1122 -3.22899
128 1 13.4339 34.4757 15.2065 -1.55293
132 1 13.4339 36.694 17.0178 -3.34473
134 1 10.9538 37.8031 17.9234 -3.36946
119 1 15.914 37.8031 17.9234 -3.36946
126 1 15.914 35.5848 16.1122 -3.22899
130 2 8.4737 38.9123 18.829 -3.36328
133 2 13.4339 38.9123 18.829 -3.36328
135 1 10.1271 38.1728 15.2065 -2.68463
136 1 10.1271 40.3911 17.0178 -3.3158
137 1 12.6072 39.282 16.1122 -2.74689
141 2 10.1271 42.6094 18.829 -3.35282
144 1 12.6072 41.5003 17.9234 -3.3707
131 1 17.5674 41.5003 17.9234 -3.3707
138 1 17.5674 39.282 16.1122 -2.74689
139 1 15.0873 38.1728 15.2065 -2.68463
142 1 15.0873 40.3911 17.0178 -3.3158
143 2 15.0873 42.6094 18.829 -3.35282
95 2 12.6072 43.7185 19.7346 -3.31265
