ITEM: TIMESTEP
59
ITEM: NUMBER OF ATOMS
144
ITEM: BOX BOUNDS xy xz yz pp pp pp
0.0000000000000000e+00 3.4721517103951555e+01 4.9602167291359365e+00
0.0000000000000000e+00 3.7710698084230671e+01 1.9840866916543746e+01
0.0000000000000000e+00 1.9734580741297954e+01 2.6619316294751066e+01
ITEM: ATOMS id type x y z c_peatom
69 2 4.96022 0 0 -3.29846
70 2 0 0 0 -3.29846
82 2 1.65341 3.69713 0 -3.30803
81 2 6.61362 3.69713 0 -3.30803
80 2 4.13351 4.80627 0.905608 -3.28995
88 1 6.76777 8.1149 3.28077 -3.24882
91 2 9.09373 4.80627 0.905608 -3.28995
92 1 9.18101 7.00321 2.43687 -3.19586
93 1 6.62953 5.9107 1.64344 -3.31096
94 2 5.78692 8.50339 0.905608 -3.31208
95 2 8.26703 7.39425 0 -3.30803
98 1 9.30391 9.1052 4.01422 -3.21481
76 1 11.5898 5.9107 1.64344 -3.31096
86 1 4.22079 7.00321 2.43687 -3.19586
87 1 14.2641 9.1052 4.01422 -3.21481
89 1 11.728 8.1149 3.28077 -3.24882
96 2 13.2272 7.39425 0 -3.30803
104 2 10.7471 8.50339 0.905608 -3.31208
68 2 7.44033 12.2005 0.905608 -3.3015
79 1 9.91468 13.2929 1.67074 -3.30737
102 1 8.25742 12.0021 3.47815 -3.315
106 1 8.26303 9.6912 1.67288 -3.32492
67 1 14.8749 13.2929 1.67074 -3.30737
77 2 12.4005 12.2005 0.905608 -3.3015
90 1 13.2233 9.6912 1.67288 -3.32492
97 1 12.1163 14.5078 5.02043 -2.84978
103 1 13.2176 12.0021 3.47815 -3.315
105 1 10.75 10.7786 2.56088 -3.30916
108 1 10.6095 12.8768 4.32368 -3.12029
100 1 15.7102 10.7786 2.56088 -3.30916
101 1 15.5697 12.8768 4.32368 -3.12029
109 1 17.0765 14.5078 5.02043 -2.84978
74 1 10.0217 15.4619 3.32939 -3.28985
75 1 14.9819 15.4619 3.32939 -3.28985
78 1 12.4203 14.4183 2.47326 -3.251
84 1 7.67576 5.65621 4.08013 -3.22369
72 1 7.46008 14.4183 2.47326 -3.251
73 1 12.636 5.65621 4.08013 -3.22369
2 1 12.6487 18.8846 5.79763 -3.30537
9 1 15.118 19.8501 6.58312 -3.20197
71 1 10.1666 6.6311 4.89895 -3.30404
1 1 17.6089 18.8846 5.79763 -3.30537
3 1 20.0782 19.8501 6.58312 -3.20197
85 1 5.20636 6.6311 4.89895 -3.30404
4 1 7.51125 10.0496 7.36865 -3.28167
7 1 14.8883 22.1738 8.26625 -3.25879
20 1 18.0371 12.6416 6.36045 -3.12372
5 1 9.66592 11.0195 5.7039 -2.87391
6 1 12.4715 10.0496 7.36865 -3.28167
8 2 12.4005 12.2005 8.96168 -3.29612
13 1 19.8485 22.1738 8.26625 -3.25879
15 1 13.0769 12.6416 6.36045 -3.12372
17 1 10.7113 13.5172 7.24915 -3.32718
83 1 11.9509 10.2727 4.87617 -3.19664
10 2 17.3608 12.2005 8.96168 -3.29612
14 1 14.6261 11.0195 5.7039 -2.87391
16 1 15.6715 13.5172 7.24915 -3.32718
99 1 6.9907 10.2727 4.87617 -3.19664
21 1 9.44743 15.2384 5.83135 -3.20907
19 2 10.7471 15.8976 8.96168 -3.30794
22 1 11.771 16.4282 6.65755 -3.18477
34 1 13.2187 14.7452 8.18429 -3.33248
35 1 14.4076 15.2384 5.83135 -3.20907
36 1 14.1704 17.3949 7.40585 -3.23725
46 1 11.6426 18.517 8.29581 -3.23211
18 1 18.1789 14.7452 8.18429 -3.33248
31 2 15.7074 15.8976 8.96168 -3.30794
41 1 19.1307 17.3949 7.40585 -3.23725
42 1 16.6028 18.517 8.29581 -3.23211
44 1 16.7312 16.4282 6.65755 -3.18477
53 2 14.0539 19.5948 8.96168 -3.30542
43 2 19.0142 19.5948 8.96168 -3.30542
26 2 19.8409 13.3097 9.86729 -3.31194
32 2 13.2272 17.0068 9.86729 -3.28073
33 2 15.7074 18.1159 10.7729 -3.30542
40 2 18.1875 17.0068 9.86729 -3.28073
37 2 20.6676 18.1159 10.7729 -3.30542
38 1 18.1187 19.1937 11.4388 -3.23211
49 1 15.5909 20.3158 12.3287 -3.23725
56 1 17.9903 21.2825 13.077 -3.18477
57 2 19.0142 21.8131 10.7729 -3.30794
58 1 16.5426 22.9655 11.5503 -3.33248
60 2 16.5341 20.7039 9.86729 -3.28073
39 1 20.5511 20.3158 12.3287 -3.23725
45 2 21.4943 20.7039 9.86729 -3.28073
50 1 22.9505 21.2825 13.077 -3.18477
52 1 23.0789 19.1937 11.4388 -3.23211
54 2 23.9744 21.8131 10.7729 -3.30794
55 1 20.3139 22.4723 13.9032 -3.20907
62 1 21.5028 22.9655 11.5503 -3.33248
117 1 29.5152 31.0796 14.8356 -3.30404
51 1 25.2741 22.4723 13.9032 -3.20907
23 2 17.3608 25.5102 10.7729 -3.29612
30 1 14.873 15.5369 11.4683 -3.25879
59 1 19.05 24.1935 12.4854 -3.32718
65 1 20.0954 26.6912 14.0307 -2.87391
11 2 14.8807 13.3097 9.86729 -3.31194
12 2 22.321 25.5102 10.7729 -3.29612
24 1 19.8332 15.5369 11.4683 -3.25879
27 1 22.2501 27.6611 12.3659 -3.28167
61 1 21.6447 25.0691 13.3741 -3.12372
63 1 24.0102 24.1935 12.4854 -3.32718
64 1 25.0556 26.6912 14.0307 -2.87391
115 1 22.6052 23.2029 14.7142 -2.84978
127 1 22.7706 27.438 14.8584 -3.19664
25 1 27.2103 27.6611 12.3659 -3.28167
66 1 16.6844 25.0691 13.3741 -3.12372
129 1 17.645 23.2029 14.7142 -2.84978
140 1 27.7308 27.438 14.8584 -3.19664
28 1 14.6433 17.8606 13.1515 -3.20197
29 1 17.1126 18.8261 13.937 -3.30537
47 1 22.0728 18.8261 13.937 -3.30537
48 1 19.6035 17.8606 13.1515 -3.20197
107 1 24.5549 31.0796 14.8356 -3.30404
114 1 19.7396 22.2488 16.4052 -3.28985
116 1 22.0855 32.0545 15.6544 -3.22369
120 1 27.2614 23.2924 17.2613 -3.251
111 1 27.0458 32.0545 15.6544 -3.22369
112 1 22.3012 23.2924 17.2613 -3.251
113 1 24.6998 22.2488 16.4052 -3.28985
110 1 19.8466 24.4178 18.0638 -3.30737
128 1 19.1518 24.8339 15.4109 -3.12029
132 1 19.0113 26.9321 17.1737 -3.30916
118 2 22.321 25.5102 18.829 -3.3015
119 1 21.4983 28.0195 18.0617 -3.32492
122 1 24.8068 24.4178 18.0638 -3.30737
123 1 24.112 24.8339 15.4109 -3.12029
124 1 23.9715 26.9321 17.1737 -3.30916
126 1 21.5039 25.7086 16.2564 -3.315
121 2 27.2812 25.5102 18.829 -3.3015
125 1 26.4641 25.7086 16.2564 -3.315
134 1 26.4585 28.0195 18.0617 -3.32492
130 2 23.9744 29.2073 18.829 -3.31208
131 1 23.1318 31.8 18.0911 -3.31096
138 1 22.9935 29.5958 16.4538 -3.24882
139 1 20.4574 28.6055 15.7204 -3.21481
142 1 30.5007 30.7075 17.2977 -3.19586
133 2 28.9346 29.2073 18.829 -3.31208
135 1 25.4176 28.6055 15.7204 -3.21481
136 1 25.5405 30.7075 17.2977 -3.19586
137 1 27.9538 29.5958 16.4538 -3.24882
141 2 25.6278 32.9044 18.829 -3.28995
144 1 28.092 31.8 18.0911 -3.31096
143 2 30.588 32.9044 18.829 -3.28995
