#Lammps coordinate file for CSL - Axis: [1 1 1]  Angle: (1, 3) -> 59.99999999999999  Plane indices: [0 1 1]  z-position: [5.4336451853244885 16.300935555973464]  Repeats: 1 1 (3, 3) (black, white)  Fixed: 2.228  Boundary equiv: True
144 atoms

2 atom types

0.0 9.920433458271871 xlo xhi
0.0 11.091381789479609 ylo yhi
0.0 21.734580741297954 zlo zhi
4.9602167291359365 23.5610294633957 48.80207987371029 xy xz yz

Atoms

1 1 14.260623096265817 18.855349042115336 6.339252716211903
2 1 19.22083982540175 18.855349042115336 6.339252716211903
3 1 16.740731460833786 19.964487221063298 7.244860247099319
4 1 19.22083982540175 21.07362540001126 8.150467777986734
5 1 22.52765097815904 22.552476305275206 6.339252716211903
6 1 14.260623096265816 21.07362540001126 8.150467777986734
7 1 11.78051473169785 22.18276357895922 9.05607530887415
8 2 14.260623096265817 23.291901757907183 9.961682839761563
9 1 11.78051473169785 19.9644872210633 7.244860247099318
10 2 19.22083982540175 23.291901757907183 9.961682839761563
11 2 16.740731460833786 24.401039936855142 10.867290370648979
12 2 19.22083982540175 25.510178115803104 11.772897901536393
13 1 16.740731460833786 22.18276357895922 9.05607530887415
14 1 17.567434249023105 22.552476305275206 6.339252716211903
15 1 15.08732588445514 23.66161448422317 7.244860247099318
16 1 17.567434249023105 24.77075266317113 8.150467777986734
17 1 22.52765097815904 24.77075266317113 8.150467777986734
18 1 20.047542613591077 25.87989084211909 9.05607530887415
19 2 22.527650978159045 26.98902902106705 9.961682839761563
20 1 20.047542613591073 23.66161448422317 7.244860247099319
21 1 20.8742454017804 26.249603568435077 6.339252716211902
22 1 23.354353766348368 27.35874174738304 7.244860247099317
23 2 14.260623096265817 25.510178115803104 11.772897901536393
24 1 11.78051473169785 26.619316294751066 12.678505432423808
25 1 14.260623096265817 27.728454473699028 13.584112963311222
26 2 11.78051473169785 24.401039936855142 10.867290370648979
27 1 19.220839825401754 27.728454473699028 13.584112963311222
28 1 16.740731460833786 28.837592652646986 14.489720494198638
29 1 19.220839825401754 29.946730831594948 15.395328025086053
30 1 16.740731460833786 26.619316294751066 12.678505432423808
31 2 17.56743424902311 26.989029021067054 9.961682839761563
32 2 15.08732588445514 28.098167200015013 10.867290370648979
33 2 17.56743424902311 29.207305378962975 11.772897901536393
34 1 15.08732588445514 25.879890842119092 9.05607530887415
35 1 15.914028672644461 26.249603568435077 6.339252716211902
36 1 15.914028672644461 28.467879926331 8.150467777986734
37 2 22.527650978159045 29.207305378962975 11.772897901536393
38 1 20.047542613591077 30.316443557910937 12.678505432423808
39 1 22.527650978159045 31.4255817368589 13.584112963311224
40 2 20.047542613591077 28.098167200015013 10.867290370648979
41 1 20.8742454017804 28.467879926330998 8.150467777986734
42 1 18.39413703721243 29.577018105278963 9.05607530887415
43 2 20.8742454017804 30.68615628422692 9.961682839761563
44 1 18.39413703721243 27.35874174738304 7.244860247099318
45 2 23.354353766348368 31.795294463174884 10.867290370648977
46 1 23.354353766348368 29.57701810527896 9.05607530887415
47 1 14.260623096265817 29.94673083159495 15.395328025086052
48 1 11.780514731697851 28.83759265264699 14.489720494198638
49 1 17.56743424902311 31.4255817368589 13.584112963311222
50 1 15.087325884455142 32.53471991580686 14.489720494198638
51 1 17.56743424902311 33.64385809475482 15.395328025086053
52 1 15.08732588445514 30.316443557910937 12.678505432423808
53 2 15.914028672644463 30.68615628422692 9.961682839761563
54 2 15.914028672644463 32.90443264212284 11.772897901536393
55 1 22.527650978159045 33.64385809475482 15.395328025086052
56 1 20.047542613591077 32.53471991580686 14.48972049419864
57 2 20.8742454017804 32.90443264212284 11.772897901536393
58 1 18.39413703721243 34.01357082107081 12.678505432423808
59 1 20.8742454017804 35.12270900001877 13.584112963311224
60 2 18.39413703721243 31.795294463174884 10.867290370648979
61 1 23.354353766348364 36.23184717896673 14.489720494198636
62 1 23.35435376634836 34.0135708210708 12.678505432423808
63 1 15.914028672644463 35.12270900001877 13.58411296331122
64 1 15.914028672644463 37.34098535791469 15.395328025086052
65 1 20.8742454017804 37.34098535791469 15.39532802508605
66 1 18.39413703721243 36.23184717896673 14.489720494198638
67 1 0.0 2.218276357895922 1.8112150617748295
68 2 2.4801083645679682 1.109138178947962 0.9056075308874146
69 2 4.960216729135936 0.0 -1.9455644930253686e-16
70 2 0.0 0.0 0.0
71 1 0.0 6.654829073687768 5.4336451853244885
72 1 2.4801083645679682 3.327414536843884 2.7168225926622442
73 1 2.4801083645679682 5.545690894739806 4.528037654437074
74 1 4.960216729135936 4.436552715791845 3.622430123549659
75 1 0.0 4.436552715791845 3.622430123549659
76 1 1.6534055763786455 5.915403621055794 1.811215061774829
77 2 7.440325093703903 1.109138178947962 0.9056075308874145
78 1 7.440325093703903 3.327414536843884 2.7168225926622442
79 1 4.960216729135936 2.218276357895922 1.8112150617748293
80 2 4.133513940946613 4.806265442107832 0.9056075308874143
81 2 6.61362230551458 3.697127263159871 -5.836693479076105e-16
82 2 1.6534055763786455 3.697127263159871 -3.8911289860507373e-16
83 1 1.6534055763786455 10.351956336847639 5.4336451853244885
84 1 7.440325093703903 5.545690894739806 4.528037654437074
85 1 4.960216729135936 6.654829073687768 5.4336451853244885
86 1 4.133513940946613 7.024541800003755 2.716822592662244
87 1 4.133513940946613 9.242818157899677 4.528037654437074
88 1 6.61362230551458 8.133679978951715 3.6224301235496585
89 1 1.6534055763786455 8.133679978951717 3.6224301235496585
90 1 3.306811152757291 9.612530884215664 1.8112150617748288
91 2 9.093730670082548 4.806265442107832 0.9056075308874142
92 1 9.093730670082547 7.024541800003755 2.716822592662244
93 1 6.61362230551458 5.915403621055793 1.8112150617748288
94 2 5.7869195173252574 8.503392705267704 0.9056075308874139
95 2 8.267027881893226 7.394254526319742 -9.727822465126844e-16
96 2 3.306811152757291 7.394254526319742 -7.782257972101475e-16
97 1 3.306811152757291 14.04908360000751 5.433645185324488
98 1 9.093730670082547 9.242818157899677 4.528037654437074
99 1 6.613622305514581 10.351956336847639 5.4336451853244885
100 1 5.786919517325258 10.721669063163626 2.7168225926622434
101 1 5.786919517325258 12.939945421059548 4.528037654437073
102 1 8.267027881893226 11.830807242111586 3.622430123549658
103 1 3.306811152757291 11.830807242111588 3.622430123549658
104 2 10.747136246461192 8.503392705267704 0.9056075308874137
105 1 10.747136246461192 10.721669063163626 2.7168225926622434
106 1 8.267027881893226 9.612530884215664 1.8112150617748286
107 1 23.5610294633957 42.14725080002252 16.300935555973467
108 1 10.747136246461192 12.939945421059548 4.528037654437073
109 1 8.267027881893226 14.04908360000751 5.433645185324488
110 1 23.5610294633957 46.58380351581437 19.923365679523123
111 1 26.041137827963663 43.25638897897049 17.20654308686088
112 1 26.041137827963666 45.47466533686641 19.01775814863571
113 1 28.521246192531635 44.36552715791845 18.112150617748295
114 1 23.5610294633957 44.36552715791845 18.112150617748295
115 1 25.214435039774344 45.84437806318239 16.300935555973464
116 1 31.001354557099596 43.25638897897049 17.20654308686088
117 1 28.521246192531635 42.14725080002252 16.300935555973464
118 2 26.041137827963666 47.692941694762325 20.82897321041054
119 1 25.214435039774344 50.28093077897424 19.923365679523123
120 1 31.001354557099596 45.47466533686641 19.017758148635707
121 2 31.001354557099603 47.692941694762325 20.82897321041054
122 1 28.521246192531635 46.58380351581437 19.923365679523126
123 1 27.69454340434231 46.95351624213036 17.20654308686088
124 1 27.694543404342312 49.17179260002628 19.01775814863571
125 1 30.17465176891028 48.06265442107832 18.112150617748295
126 1 25.214435039774344 48.06265442107832 18.112150617748295
127 1 26.86784061615299 49.54150532634226 16.300935555973464
128 1 32.65476013347825 46.95351624213036 17.20654308686088
129 1 30.17465176891028 45.84437806318239 16.300935555973464
130 2 27.694543404342312 51.390068957922196 20.82897321041054
131 1 26.86784061615299 53.97805804213411 19.923365679523123
132 1 32.65476013347825 49.17179260002628 19.017758148635707
133 2 32.65476013347825 51.390068957922196 20.82897321041054
134 1 30.17465176891028 50.28093077897424 19.923365679523126
135 1 29.347948980720957 50.65064350529023 17.20654308686088
136 1 29.347948980720957 52.86891986318615 19.01775814863571
137 1 31.828057345288926 51.75978168423819 18.112150617748295
138 1 26.86784061615299 51.75978168423819 18.112150617748295
139 1 34.308165709856894 50.65064350529023 17.20654308686088
140 1 31.828057345288926 49.54150532634226 16.300935555973464
141 2 29.347948980720957 55.08719622108208 20.82897321041054
142 1 34.308165709856894 52.86891986318615 19.017758148635707
143 2 34.308165709856894 55.08719622108208 20.82897321041054
144 1 31.828057345288926 53.97805804213411 19.923365679523126
