#Lammps coordinate file for CSL - Axis: [1 1 1]  Angle: (1, 3) -> 59.99999999999999  Plane indices: [0 1 1]  z-position: [5.6836451853244885 17.050935555973464]  Repeats: 1 1 (3, 3) (black, white)  Fixed: 2.228  Boundary equiv: True
144 atoms

2 atom types

0.0 9.920433458271871 xlo xhi
0.0 11.091381789479609 ylo yhi
0.0 22.734580741297954 zlo zhi
4.9602167291359365 14.880650187407811 26.61931629475107 xy xz yz

Atoms

1 1 9.920433458271873 7.7639672526357275 6.839252716211904
2 1 14.880650187407806 7.763967252635727 6.839252716211904
3 1 12.400541822839841 8.873105431583689 7.74486024709932
4 1 14.880650187407806 9.98224361053165 8.650467777986734
5 1 18.187461340165097 11.461094515795597 6.839252716211904
6 1 9.920433458271873 9.98224361053165 8.650467777986734
7 1 7.440325093703906 11.091381789479613 9.55607530887415
8 2 9.920433458271873 12.200519968427573 10.461682839761563
9 1 7.440325093703906 8.87310543158369 7.744860247099319
10 2 14.880650187407806 12.200519968427573 10.461682839761563
11 2 12.400541822839841 13.309658147375533 11.367290370648979
12 2 14.880650187407808 14.418796326323495 12.272897901536393
13 1 12.400541822839841 11.091381789479613 9.55607530887415
14 1 13.22724461102916 11.461094515795597 6.839252716211904
15 1 10.747136246461196 12.57023269474356 7.744860247099319
16 1 13.227244611029162 13.679370873691521 8.650467777986734
17 1 18.187461340165097 13.67937087369152 8.650467777986734
18 1 15.707352975597132 14.788509052639482 9.55607530887415
19 2 18.1874613401651 15.897647231587442 10.461682839761563
20 1 15.707352975597129 12.57023269474356 7.74486024709932
21 1 16.534055763786455 15.158221778955468 6.839252716211903
22 1 19.014164128354423 16.26735995790343 7.744860247099318
23 2 9.920433458271873 14.418796326323495 12.272897901536393
24 1 7.4403250937039065 15.527934505271457 13.178505432423808
25 1 9.920433458271873 16.63707268421942 14.084112963311222
26 2 7.4403250937039065 13.309658147375535 11.367290370648979
27 1 14.88065018740781 16.63707268421942 14.084112963311222
28 1 12.400541822839841 17.746210863167377 14.989720494198638
29 1 14.88065018740781 18.85534904211534 15.895328025086053
30 1 12.400541822839841 15.527934505271457 13.178505432423808
31 2 13.227244611029164 15.897647231587444 10.461682839761563
32 2 10.747136246461196 17.006785410535404 11.367290370648979
33 2 13.227244611029164 18.115923589483366 12.272897901536393
34 1 10.747136246461196 14.788509052639483 9.55607530887415
35 1 11.573839034650518 15.158221778955468 6.839252716211903
36 1 11.573839034650518 17.376498136851392 8.650467777986734
37 2 18.1874613401651 18.115923589483366 12.272897901536393
38 1 15.707352975597132 19.225061768431328 13.178505432423808
39 1 18.1874613401651 20.33419994737929 14.084112963311224
40 2 15.707352975597132 17.006785410535404 11.367290370648979
41 1 16.534055763786455 17.37649813685139 8.650467777986734
42 1 14.053947399218487 18.485636315799354 9.55607530887415
43 2 16.534055763786455 19.594774494747313 10.461682839761563
44 1 14.053947399218487 16.26735995790343 7.744860247099319
45 2 19.014164128354423 20.703912673695275 11.367290370648977
46 1 19.014164128354423 18.48563631579935 9.55607530887415
47 1 9.920433458271875 18.855349042115343 15.895328025086052
48 1 7.440325093703907 17.74621086316738 14.989720494198638
49 1 13.227244611029164 20.33419994737929 14.084112963311222
50 1 10.7471362464612 21.443338126327248 14.989720494198638
51 1 13.227244611029164 22.55247630527521 15.895328025086053
52 1 10.747136246461197 19.225061768431328 13.178505432423808
53 2 11.573839034650518 19.594774494747313 10.461682839761563
54 2 11.573839034650518 21.813050852643237 12.272897901536393
55 1 18.1874613401651 22.55247630527521 15.895328025086052
56 1 15.707352975597132 21.443338126327248 14.98972049419864
57 2 16.534055763786455 21.813050852643237 12.272897901536393
58 1 14.053947399218487 22.9221890315912 13.178505432423808
59 1 16.534055763786455 24.03132721053916 14.084112963311224
60 2 14.053947399218487 20.703912673695275 11.367290370648979
61 1 19.01416412835442 25.14046538948712 14.989720494198636
62 1 19.01416412835442 22.922189031591195 13.178505432423808
63 1 11.573839034650518 24.03132721053916 14.08411296331122
64 1 11.573839034650518 26.24960356843508 15.895328025086052
65 1 16.534055763786455 26.24960356843508 15.89532802508605
66 1 14.053947399218487 25.14046538948712 14.989720494198638
67 1 0.0 2.2182763578959226 1.8112150617748295
68 2 2.4801083645679673 1.109138178947961 0.9056075308874146
69 2 4.960216729135936 -4.440892098500626e-16 -2.220446049250313e-16
70 2 0.0 0.0 0.0
71 1 8.881784197001252e-16 6.654829073687768 5.6836451853244885
72 1 2.4801083645679673 3.327414536843884 2.7168225926622442
73 1 2.4801083645679682 5.545690894739806 4.528037654437074
74 1 4.960216729135936 4.436552715791845 3.622430123549659
75 1 8.881784197001252e-16 4.436552715791845 3.622430123549659
76 1 1.6534055763786455 5.915403621055794 1.811215061774829
77 2 7.440325093703903 1.109138178947961 0.9056075308874145
78 1 7.440325093703903 3.3274145368438837 2.7168225926622442
79 1 4.960216729135936 2.218276357895922 1.8112150617748293
80 2 4.133513940946613 4.806265442107832 0.9056075308874143
81 2 6.61362230551458 3.6971272631598704 -5.551115123125783e-16
82 2 1.6534055763786455 3.697127263159871 -4.440892098500626e-16
83 1 1.6534055763786455 10.351956336847639 5.6836451853244885
84 1 7.440325093703903 5.545690894739806 4.528037654437074
85 1 4.960216729135936 6.654829073687768 5.6836451853244885
86 1 4.133513940946613 7.024541800003755 2.7168225926622434
87 1 4.133513940946613 9.242818157899677 4.528037654437074
88 1 6.61362230551458 8.133679978951715 3.622430123549658
89 1 1.6534055763786455 8.133679978951717 3.622430123549658
90 1 3.30681115275729 9.612530884215664 1.8112150617748288
91 2 9.093730670082548 4.806265442107832 0.9056075308874142
92 1 9.093730670082547 7.024541800003755 2.7168225926622434
93 1 6.61362230551458 5.915403621055793 1.8112150617748288
94 2 5.7869195173252574 8.503392705267704 0.9056075308874139
95 2 8.267027881893226 7.394254526319742 -9.992007221626409e-16
96 2 3.30681115275729 7.394254526319742 -7.771561172376096e-16
97 1 3.306811152757291 14.04908360000751 5.683645185324488
98 1 9.093730670082547 9.242818157899677 4.528037654437074
99 1 6.613622305514581 10.351956336847639 5.6836451853244885
100 1 5.786919517325258 10.721669063163626 2.7168225926622434
101 1 5.786919517325258 12.939945421059548 4.528037654437073
102 1 8.267027881893226 11.830807242111586 3.622430123549658
103 1 3.306811152757291 11.830807242111588 3.622430123549658
104 2 10.747136246461192 8.503392705267704 0.9056075308874137
105 1 10.747136246461192 10.721669063163626 2.7168225926622434
106 1 8.267027881893226 9.612530884215664 1.8112150617748286
107 1 14.88065018740781 19.964487221063305 17.050935555973467
108 1 10.747136246461192 12.939945421059548 4.528037654437073
109 1 8.267027881893226 14.04908360000751 5.683645185324488
110 1 14.88065018740781 24.40103993685515 20.923365679523123
111 1 17.360758551975778 21.073625400011267 18.20654308686088
112 1 17.360758551975778 23.29190175790719 20.01775814863571
113 1 19.840866916543746 22.18276357895923 19.112150617748295
114 1 14.88065018740781 22.18276357895923 19.112150617748295
115 1 16.534055763786455 23.661614484223175 17.050935555973464
116 1 22.32097528111171 21.073625400011267 18.20654308686088
117 1 19.840866916543746 19.964487221063305 17.050935555973464
118 2 17.360758551975778 25.51017811580311 21.82897321041054
119 1 16.534055763786455 28.09816720001502 20.923365679523123
120 1 22.32097528111171 23.291901757907187 20.017758148635707
121 2 22.320975281111714 25.51017811580311 21.82897321041054
122 1 19.840866916543746 24.40103993685515 20.923365679523126
123 1 19.014164128354423 24.770752663171137 18.20654308686088
124 1 19.014164128354423 26.98902902106706 20.01775814863571
125 1 21.49427249292239 25.8798908421191 19.112150617748295
126 1 16.534055763786455 25.8798908421191 19.112150617748295
127 1 18.1874613401651 27.358741747383046 17.050935555973464
128 1 23.97438085749036 24.770752663171137 18.20654308686088
129 1 21.49427249292239 23.661614484223175 17.050935555973464
130 2 19.014164128354423 29.20730537896298 21.82897321041054
131 1 18.1874613401651 31.79529446317489 20.923365679523123
132 1 23.97438085749036 26.989029021067058 20.017758148635707
133 2 23.97438085749036 29.20730537896298 21.82897321041054
134 1 21.49427249292239 28.09816720001502 20.923365679523126
135 1 20.66756970473307 28.46787992633101 18.20654308686088
136 1 20.66756970473307 30.686156284226932 20.01775814863571
137 1 23.147678069301037 29.57701810527897 19.112150617748295
138 1 18.1874613401651 29.57701810527897 19.112150617748295
139 1 25.627786433869005 28.46787992633101 18.20654308686088
140 1 23.147678069301037 27.358741747383046 17.050935555973464
141 2 20.66756970473307 32.904432642122856 21.82897321041054
142 1 25.627786433869005 30.68615628422693 20.017758148635707
143 2 25.627786433869005 32.904432642122856 21.82897321041054
144 1 23.147678069301037 31.79529446317489 20.923365679523126
