#Lammps coordinate file for CSL - Axis: [1 1 1]  Angle: (1, 3) -> 59.99999999999999  Plane indices: [0 1 1]  z-position: [5.6836451853244885 17.050935555973464]  Repeats: 1 1 (3, 3) (black, white)  Fixed: 2.228  Boundary equiv: True
144 atoms

2 atom types

0.0 9.920433458271871 xlo xhi
0.0 11.091381789479609 ylo yhi
0.0 22.734580741297954 zlo zhi
4.9602167291359365 16.1207043696918 40.48354353160058 xy xz yz

Atoms

1 1 10.540460549413865 14.696080871060484 6.839252716211904
2 1 15.500677278549798 14.696080871060483 6.839252716211904
3 1 13.020568913981833 15.805219050008443 7.74486024709932
4 1 15.5006772785498 16.914357228956405 8.650467777986734
5 1 18.807488431307092 18.39320813422035 6.839252716211904
6 1 10.540460549413865 16.914357228956405 8.650467777986734
7 1 8.060352184845899 18.023495407904367 9.55607530887415
8 2 10.540460549413865 19.13263358685233 10.461682839761563
9 1 8.060352184845899 15.805219050008446 7.744860247099319
10 2 15.5006772785498 19.13263358685233 10.461682839761563
11 2 13.020568913981833 20.241771765800287 11.367290370648979
12 2 15.500677278549801 21.35090994474825 12.272897901536393
13 1 13.020568913981833 18.023495407904367 9.55607530887415
14 1 13.847271702171154 18.39320813422035 6.839252716211904
15 1 11.367163337603188 19.502346313168314 7.744860247099319
16 1 13.847271702171156 20.611484492116276 8.650467777986734
17 1 18.807488431307092 20.611484492116276 8.650467777986734
18 1 16.327380066739124 21.720622671064238 9.55607530887415
19 2 18.807488431307092 22.829760850012196 10.461682839761563
20 1 16.327380066739124 19.502346313168314 7.74486024709932
21 1 17.154082854928447 22.090335397380223 6.839252716211903
22 1 19.634191219496415 23.199473576328185 7.744860247099318
23 2 10.540460549413867 21.35090994474825 12.272897901536393
24 1 8.0603521848459 22.46004812369621 13.178505432423808
25 1 10.540460549413867 23.569186302644173 14.084112963311222
26 2 8.0603521848459 20.24177176580029 11.367290370648979
27 1 15.500677278549801 23.569186302644173 14.084112963311222
28 1 13.020568913981835 24.67832448159213 14.989720494198638
29 1 15.500677278549801 25.787462660540093 15.895328025086053
30 1 13.020568913981835 22.46004812369621 13.178505432423808
31 2 13.847271702171156 22.8297608500122 10.461682839761563
32 2 11.36716333760319 23.938899028960158 11.367290370648979
33 2 13.847271702171156 25.04803720790812 12.272897901536393
34 1 11.36716333760319 21.720622671064238 9.55607530887415
35 1 12.19386612579251 22.090335397380223 6.839252716211903
36 1 12.19386612579251 24.308611755276146 8.650467777986734
37 2 18.807488431307092 25.04803720790812 12.272897901536393
38 1 16.327380066739124 26.157175386856082 13.178505432423808
39 1 18.807488431307092 27.266313565804044 14.084112963311224
40 2 16.327380066739124 23.938899028960158 11.367290370648979
41 1 17.154082854928447 24.308611755276143 8.650467777986734
42 1 14.673974490360479 25.41774993422411 9.55607530887415
43 2 17.154082854928447 26.526888113172067 10.461682839761563
44 1 14.673974490360479 23.199473576328185 7.744860247099319
45 2 19.634191219496415 27.63602629212003 11.367290370648977
46 1 19.634191219496415 25.417749934224105 9.55607530887415
47 1 10.540460549413869 25.787462660540097 15.895328025086052
48 1 8.0603521848459 24.678324481592135 14.989720494198638
49 1 13.847271702171156 27.266313565804044 14.084112963311222
50 1 11.367163337603191 28.375451744752002 14.989720494198638
51 1 13.847271702171158 29.484589923699964 15.895328025086053
52 1 11.367163337603191 26.157175386856082 13.178505432423808
53 2 12.19386612579251 26.526888113172067 10.461682839761563
54 2 12.193866125792512 28.74516447106799 12.272897901536393
55 1 18.807488431307092 29.484589923699964 15.895328025086052
56 1 16.327380066739124 28.375451744752002 14.98972049419864
57 2 17.154082854928447 28.74516447106799 12.272897901536393
58 1 14.67397449036048 29.854302650015953 13.178505432423808
59 1 17.154082854928447 30.963440828963915 14.084112963311224
60 2 14.673974490360479 27.63602629212003 11.367290370648979
61 1 19.634191219496415 32.07257900791188 14.989720494198636
62 1 19.63419121949641 29.85430265001595 13.178505432423808
63 1 12.193866125792512 30.963440828963915 14.08411296331122
64 1 12.193866125792512 33.181717186859835 15.895328025086052
65 1 17.154082854928447 33.181717186859835 15.89532802508605
66 1 14.67397449036048 32.07257900791188 14.989720494198638
67 1 0.0 2.218276357895923 1.8112150617748295
68 2 2.4801083645679682 1.109138178947961 0.9056075308874146
69 2 4.960216729135936 -8.881784197001252e-16 -1.6653345369377348e-16
70 2 0.0 0.0 0.0
71 1 0.0 6.654829073687768 5.6836451853244885
72 1 2.4801083645679682 3.327414536843884 2.7168225926622442
73 1 2.4801083645679682 5.545690894739806 4.528037654437074
74 1 4.960216729135936 4.436552715791845 3.622430123549659
75 1 0.0 4.436552715791845 3.622430123549659
76 1 1.6534055763786455 5.915403621055794 1.811215061774829
77 2 7.440325093703903 1.109138178947961 0.9056075308874145
78 1 7.440325093703903 3.3274145368438837 2.7168225926622442
79 1 4.960216729135936 2.218276357895922 1.8112150617748295
80 2 4.133513940946613 4.806265442107832 0.9056075308874143
81 2 6.61362230551458 3.6971272631598704 -5.551115123125783e-16
82 2 1.6534055763786455 3.697127263159871 -4.440892098500626e-16
83 1 1.6534055763786455 10.351956336847639 5.6836451853244885
84 1 7.440325093703903 5.545690894739806 4.528037654437074
85 1 4.960216729135936 6.654829073687768 5.6836451853244885
86 1 4.133513940946613 7.024541800003755 2.716822592662244
87 1 4.133513940946613 9.242818157899677 4.528037654437074
88 1 6.61362230551458 8.133679978951715 3.6224301235496585
89 1 1.6534055763786455 8.133679978951717 3.6224301235496585
90 1 3.306811152757291 9.612530884215664 1.811215061774829
91 2 9.093730670082548 4.806265442107832 0.9056075308874142
92 1 9.093730670082547 7.024541800003755 2.716822592662244
93 1 6.61362230551458 5.915403621055793 1.811215061774829
94 2 5.7869195173252574 8.503392705267704 0.9056075308874139
95 2 8.267027881893226 7.394254526319742 -9.992007221626409e-16
96 2 3.306811152757291 7.394254526319742 -7.771561172376096e-16
97 1 3.306811152757291 14.04908360000751 5.683645185324488
98 1 9.093730670082547 9.242818157899677 4.528037654437074
99 1 6.613622305514581 10.351956336847639 5.6836451853244885
100 1 5.786919517325258 10.721669063163626 2.7168225926622434
101 1 5.786919517325258 12.939945421059548 4.528037654437073
102 1 8.267027881893226 11.830807242111586 3.622430123549658
103 1 3.306811152757291 11.830807242111588 3.622430123549658
104 2 10.747136246461192 8.503392705267704 0.9056075308874137
105 1 10.747136246461192 10.721669063163626 2.7168225926622434
106 1 8.267027881893226 9.612530884215664 1.8112150617748286
107 1 16.120704369691794 33.82871445791282 17.050935555973467
108 1 10.747136246461192 12.939945421059548 4.528037654437073
109 1 8.267027881893226 14.04908360000751 5.683645185324488
110 1 16.120704369691794 38.26526717370466 20.923365679523123
111 1 18.600812734259762 34.937852636860775 18.20654308686088
112 1 18.600812734259762 37.1561289947567 20.01775814863571
113 1 21.08092109882773 36.04699081580874 19.112150617748295
114 1 16.120704369691794 36.04699081580874 19.112150617748295
115 1 17.77410994607044 37.52584172107269 17.050935555973464
116 1 23.5610294633957 34.937852636860775 18.20654308686088
117 1 21.08092109882773 33.82871445791282 17.050935555973464
118 2 18.600812734259762 39.37440535265262 21.82897321041054
119 1 17.77410994607044 41.962394436864535 20.923365679523123
120 1 23.5610294633957 37.1561289947567 20.017758148635707
121 2 23.5610294633957 39.37440535265262 21.82897321041054
122 1 21.08092109882773 38.26526717370466 20.923365679523126
123 1 20.254218310638407 38.634979900020646 18.20654308686088
124 1 20.254218310638407 40.85325625791658 20.01775814863571
125 1 22.734326675206376 39.74411807896861 19.112150617748295
126 1 17.77410994607044 39.74411807896861 19.112150617748295
127 1 19.427515522449085 41.22296898423256 17.050935555973464
128 1 25.214435039774344 38.634979900020646 18.20654308686088
129 1 22.734326675206376 37.52584172107269 17.050935555973464
130 2 20.254218310638407 43.071532615812494 21.82897321041054
131 1 19.427515522449085 45.659521700024406 20.923365679523123
132 1 25.214435039774344 40.85325625791657 20.017758148635707
133 2 25.214435039774344 43.071532615812494 21.82897321041054
134 1 22.734326675206376 41.962394436864535 20.923365679523126
135 1 21.907623887017053 42.332107163180524 18.20654308686088
136 1 21.907623887017053 44.55038352107645 20.01775814863571
137 1 24.38773225158502 43.44124534212848 19.112150617748295
138 1 19.427515522449085 43.44124534212848 19.112150617748295
139 1 26.86784061615299 42.332107163180524 18.20654308686088
140 1 24.38773225158502 41.22296898423256 17.050935555973464
141 2 21.907623887017053 46.76865987897237 21.82897321041054
142 1 26.86784061615299 44.55038352107644 20.017758148635707
143 2 26.86784061615299 46.76865987897237 21.82897321041054
144 1 24.38773225158502 45.659521700024406 20.923365679523126
