LAMMPS (29 Aug 2024 - Update 2)
#---------------------------------------------------------------------------------------------------
# Initilise important features of simulation
#---------------------------------------------------------------------------------------------------
units 		metal	# Use metals units (Ang, ps, eV, bar, etc.)
dimension 	3		# Run the simulation in three dimensions
boundary 	p p p	# Use periodic boundaries in all three dimensions
atom_style 	atomic	#
#box tilt large		# Allow larger than normal tilt factors

variable T_start equal 600
variable T_end equal 200
variable tstep equal 0.002
timestep ${tstep}
timestep 0.002

read_data   lammps.txt	# Read in atom coordinates from a file
Reading data file ...
  triclinic box = (0 0 0) to (9.9204335 11.091382 20.734581) with tilt (4.9602167 10.540461 44.642812)
WARNING: Triclinic box skew is large. LAMMPS will run inefficiently. (src/domain.cpp:221)
  1 by 1 by 1 MPI processor grid
  reading atoms ...
  144 atoms
  read_data CPU = 0.000 seconds

#---------------------------------------------------------------------------------------------------
# Define how the forces between the atoms will be modelled
#---------------------------------------------------------------------------------------------------
pair_style eam/alloy
pair_coeff * * Zope-Ti-Al-2003.eam.alloy.txt Al Al

#---------------------------------------------------------------------------------------------------
# Set behaviour of simulation
#---------------------------------------------------------------------------------------------------
group g_fixed type 2
36 atoms in group g_fixed
group g_other type 1
108 atoms in group g_other
fix f_freeze g_fixed setforce 0.0 0.0 0.0 	# Hold atoms of type 2 fixed in place
#fix f_constrain g_other setforce 0.0 0.0 NULL 	# All atoms of type 1 to move only in z direction

#---------------------------------------------------------------------------------------------------
# Specify what information to write out
#---------------------------------------------------------------------------------------------------
thermo_style custom step atoms temp pe ke etotal fmax
thermo_modify format 6 %20.10f
thermo 1000

#compute statom all stress/atom NULL
compute peatom all pe/atom
dump 1 all custom 100000 dump.* id type x y z c_peatom
dump_modify 1 first yes


#---------------------------------------------------------------------------------------------------
# Initial relaxation
#---------------------------------------------------------------------------------------------------
velocity all set 0.0 0.0 0.0

min_style 	cg
min_modify dmax 0.1
minimize 	0.0 1.0e-6 10000 100000
Neighbor list info ...
  update: every = 1 steps, delay = 0 steps, check = yes
  max neighbors/atom: 2000, page size: 100000
  master list distance cutoff = 8.724884
  ghost atom cutoff = 8.724884
  binsize = 4.362442, bins = 6 13 5
  1 neighbor lists, perpetual/occasional/extra = 1 0 0
  (1) pair eam/alloy, perpetual
      attributes: half, newton on
      pair build: half/bin/atomonly/newton/tri
      stencil: half/bin/3d/tri
      bin: standard
Per MPI rank memory allocation (min/avg/max) = 4.744 | 4.744 | 4.744 Mbytes
   Step        Atoms         Temp          PotEng         KinEng         TotEng          Fmax     
         0         144   0             -418.75135      0                  -418.7513452693  7.5774743    
        65         144   0             -467.69136      0                  -467.6913572873  1.3297432e-07
Loop time of 0.0134451 on 1 procs for 65 steps with 144 atoms

98.3% CPU use with 1 MPI tasks x no OpenMP threads

Minimization stats:
  Stopping criterion = force tolerance
  Energy initial, next-to-last, final = 
     -418.751345269298  -467.691357287282  -467.691357287277
  Force two-norm initial, final = 38.850262 8.4480537e-07
  Force max component initial, final = 7.5774743 1.3297432e-07
  Final line search alpha, max atom move = 1 1.3297432e-07
  Iterations, force evaluations = 65 122

MPI task timing breakdown:
Section |  min time  |  avg time  |  max time  |%varavg| %total
---------------------------------------------------------------
Pair    | 0.011969   | 0.011969   | 0.011969   |   0.0 | 89.02
Neigh   | 0          | 0          | 0          |   0.0 |  0.00
Comm    | 0.000835   | 0.000835   | 0.000835   |   0.0 |  6.21
Output  | 0          | 0          | 0          |   0.0 |  0.00
Modify  | 2.1374e-05 | 2.1374e-05 | 2.1374e-05 |   0.0 |  0.16
Other   |            | 0.0006201  |            |       |  4.61

Nlocal:            144 ave         144 max         144 min
Histogram: 1 0 0 0 0 0 0 0 0 0
Nghost:           3892 ave        3892 max        3892 min
Histogram: 1 0 0 0 0 0 0 0 0 0
Neighs:          12968 ave       12968 max       12968 min
Histogram: 1 0 0 0 0 0 0 0 0 0

Total # of neighbors = 12968
Ave neighs/atom = 90.055556
Neighbor list builds = 0
Dangerous builds = 0
#---------------------------------------------------------------------------------------------------
# Anneal boundary structures
#---------------------------------------------------------------------------------------------------
reset_timestep 100000
fix md g_other nvt temp ${T_start} ${T_end} $(100.0*v_tstep)
fix md g_other nvt temp 600 ${T_end} $(100.0*v_tstep)
fix md g_other nvt temp 600 200 $(100.0*v_tstep)
fix md g_other nvt temp 600 200 0.2000000000000000111

velocity all create ${T_start} 4928459 rot yes mom yes dist gaussian
velocity all create 600 4928459 rot yes mom yes dist gaussian
run 10000
Per MPI rank memory allocation (min/avg/max) = 5.001 | 5.001 | 5.001 Mbytes
   Step        Atoms         Temp          PotEng         KinEng         TotEng          Fmax     
    100000         144   600           -467.69136      11.09052           -456.6008368463  1.3297432e-07
    101000         144   592.47854     -460.58427      10.951492          -449.6327771218  1.296981     
    102000         144   592.39185     -460.83931      10.94989           -449.8894186433  1.4584478    
    103000         144   516.86039     -461.90136      9.5537511          -452.3476058013  1.1999425    
    104000         144   556.60018     -463.32051      10.288309          -453.0322041796  1.1989337    
    105000         144   482.88185     -463.26892      8.925685           -454.3432331987  1.0909061    
    106000         144   466.64505     -463.10973      8.6255607          -454.4841648569  1.082107     
    107000         144   421.42806     -464.43088      7.7897608          -456.6411217360  1.3228179    
    108000         144   411.02541     -464.86707      7.5974763          -457.2695920353  1.1124141    
    109000         144   359.69475     -465.59196      6.64867            -458.9432864040  0.99592497   
    110000         144   342.10681     -465.96276      6.323571           -459.6391843901  1.0490249    
Loop time of 1.05246 on 1 procs for 10000 steps with 144 atoms

Performance: 1641.870 ns/day, 0.015 hours/ns, 9501.560 timesteps/s, 1.368 Matom-step/s
98.3% CPU use with 1 MPI tasks x no OpenMP threads

MPI task timing breakdown:
Section |  min time  |  avg time  |  max time  |%varavg| %total
---------------------------------------------------------------
Pair    | 0.92324    | 0.92324    | 0.92324    |   0.0 | 87.72
Neigh   | 0.035481   | 0.035481   | 0.035481   |   0.0 |  3.37
Comm    | 0.068839   | 0.068839   | 0.068839   |   0.0 |  6.54
Output  | 8.825e-05  | 8.825e-05  | 8.825e-05  |   0.0 |  0.01
Modify  | 0.011347   | 0.011347   | 0.011347   |   0.0 |  1.08
Other   |            | 0.01347    |            |       |  1.28

Nlocal:            144 ave         144 max         144 min
Histogram: 1 0 0 0 0 0 0 0 0 0
Nghost:           3795 ave        3795 max        3795 min
Histogram: 1 0 0 0 0 0 0 0 0 0
Neighs:          12652 ave       12652 max       12652 min
Histogram: 1 0 0 0 0 0 0 0 0 0

Total # of neighbors = 12652
Ave neighs/atom = 87.861111
Neighbor list builds = 64
Dangerous builds = 0
unfix md

#---------------------------------------------------------------------------------------------------
# Final relaxation
#---------------------------------------------------------------------------------------------------
velocity all set 0.0 0.0 0.0

min_style 	cg
min_modify dmax 0.1
minimize 	0.0 1.0e-6 10000 100000
Per MPI rank memory allocation (min/avg/max) = 6.126 | 6.126 | 6.126 Mbytes
   Step        Atoms         Temp          PotEng         KinEng         TotEng          Fmax     
    110000         144   0             -465.96276      0                  -465.9627554074  1.0490249    
    110062         144   0             -468.89486      0                  -468.8948636338  1.5685632e-07
Loop time of 0.0144331 on 1 procs for 62 steps with 144 atoms

89.9% CPU use with 1 MPI tasks x no OpenMP threads

Minimization stats:
  Stopping criterion = force tolerance
  Energy initial, next-to-last, final = 
     -465.962755407352  -468.894863633753  -468.894863633754
  Force two-norm initial, final = 5.2210012 8.0207739e-07
  Force max component initial, final = 1.0490249 1.5685632e-07
  Final line search alpha, max atom move = 1 1.5685632e-07
  Iterations, force evaluations = 62 122

MPI task timing breakdown:
Section |  min time  |  avg time  |  max time  |%varavg| %total
---------------------------------------------------------------
Pair    | 0.01176    | 0.01176    | 0.01176    |   0.0 | 81.48
Neigh   | 0          | 0          | 0          |   0.0 |  0.00
Comm    | 0.00079795 | 0.00079795 | 0.00079795 |   0.0 |  5.53
Output  | 0          | 0          | 0          |   0.0 |  0.00
Modify  | 1.8299e-05 | 1.8299e-05 | 1.8299e-05 |   0.0 |  0.13
Other   |            | 0.001857   |            |       | 12.86

Nlocal:            144 ave         144 max         144 min
Histogram: 1 0 0 0 0 0 0 0 0 0
Nghost:           3806 ave        3806 max        3806 min
Histogram: 1 0 0 0 0 0 0 0 0 0
Neighs:          12663 ave       12663 max       12663 min
Histogram: 1 0 0 0 0 0 0 0 0 0

Total # of neighbors = 12663
Ave neighs/atom = 87.9375
Neighbor list builds = 0
Dangerous builds = 0

Total wall time: 0:00:01
