LAMMPS (29 Aug 2024 - Update 2)
#---------------------------------------------------------------------------------------------------
# Initilise important features of simulation
#---------------------------------------------------------------------------------------------------
units 		metal	# Use metals units (Ang, ps, eV, bar, etc.)
dimension 	3		# Run the simulation in three dimensions
boundary 	p p p	# Use periodic boundaries in all three dimensions
atom_style 	atomic	#
#box tilt large		# Allow larger than normal tilt factors

variable T_start equal 600
variable T_end equal 200
variable tstep equal 0.002
timestep ${tstep}
timestep 0.002

read_data   lammps.txt	# Read in atom coordinates from a file
Reading data file ...
  triclinic box = (0 0 0) to (9.9204335 11.091382 23.734581) with tilt (4.9602167 19.840867 26.619316)
WARNING: Triclinic box skew is large. LAMMPS will run inefficiently. (src/domain.cpp:221)
  1 by 1 by 1 MPI processor grid
  reading atoms ...
  144 atoms
  read_data CPU = 0.001 seconds

#---------------------------------------------------------------------------------------------------
# Define how the forces between the atoms will be modelled
#---------------------------------------------------------------------------------------------------
pair_style eam/alloy
pair_coeff * * Zope-Ti-Al-2003.eam.alloy.txt Al Al

#---------------------------------------------------------------------------------------------------
# Set behaviour of simulation
#---------------------------------------------------------------------------------------------------
group g_fixed type 2
36 atoms in group g_fixed
group g_other type 1
108 atoms in group g_other
fix f_freeze g_fixed setforce 0.0 0.0 0.0 	# Hold atoms of type 2 fixed in place
#fix f_constrain g_other setforce 0.0 0.0 NULL 	# All atoms of type 1 to move only in z direction

#---------------------------------------------------------------------------------------------------
# Specify what information to write out
#---------------------------------------------------------------------------------------------------
thermo_style custom step atoms temp pe ke etotal fmax
thermo_modify format 6 %20.10f
thermo 1000

#compute statom all stress/atom NULL
compute peatom all pe/atom
dump 1 all custom 100000 dump.* id type x y z c_peatom
dump_modify 1 first yes


#---------------------------------------------------------------------------------------------------
# Initial relaxation
#---------------------------------------------------------------------------------------------------
velocity all set 0.0 0.0 0.0

min_style 	cg
min_modify dmax 0.1
minimize 	0.0 1.0e-6 10000 100000
Neighbor list info ...
  update: every = 1 steps, delay = 0 steps, check = yes
  max neighbors/atom: 2000, page size: 100000
  master list distance cutoff = 8.724884
  ghost atom cutoff = 8.724884
  binsize = 4.362442, bins = 8 9 6
  1 neighbor lists, perpetual/occasional/extra = 1 0 0
  (1) pair eam/alloy, perpetual
      attributes: half, newton on
      pair build: half/bin/atomonly/newton/tri
      stencil: half/bin/3d/tri
      bin: standard
Per MPI rank memory allocation (min/avg/max) = 4.661 | 4.661 | 4.661 Mbytes
   Step        Atoms         Temp          PotEng         KinEng         TotEng          Fmax     
         0         144   0             -464.79889      0                  -464.7988851314  2.5827621    
        82         144   0             -474.40311      0                  -474.4031059602  1.0307313e-07
Loop time of 0.0131811 on 1 procs for 82 steps with 144 atoms

98.0% CPU use with 1 MPI tasks x no OpenMP threads

Minimization stats:
  Stopping criterion = force tolerance
  Energy initial, next-to-last, final = 
     -464.798885131382  -474.403105960241   -474.40310596024
  Force two-norm initial, final = 11.24856 6.7855598e-07
  Force max component initial, final = 2.5827621 1.0307313e-07
  Final line search alpha, max atom move = 1 1.0307313e-07
  Iterations, force evaluations = 82 154

MPI task timing breakdown:
Section |  min time  |  avg time  |  max time  |%varavg| %total
---------------------------------------------------------------
Pair    | 0.011862   | 0.011862   | 0.011862   |   0.0 | 89.99
Neigh   | 0          | 0          | 0          |   0.0 |  0.00
Comm    | 0.00063084 | 0.00063084 | 0.00063084 |   0.0 |  4.79
Output  | 0          | 0          | 0          |   0.0 |  0.00
Modify  | 2.0704e-05 | 2.0704e-05 | 2.0704e-05 |   0.0 |  0.16
Other   |            | 0.0006679  |            |       |  5.07

Nlocal:            144 ave         144 max         144 min
Histogram: 1 0 0 0 0 0 0 0 0 0
Nghost:           2392 ave        2392 max        2392 min
Histogram: 1 0 0 0 0 0 0 0 0 0
Neighs:          11392 ave       11392 max       11392 min
Histogram: 1 0 0 0 0 0 0 0 0 0

Total # of neighbors = 11392
Ave neighs/atom = 79.111111
Neighbor list builds = 0
Dangerous builds = 0
#---------------------------------------------------------------------------------------------------
# Anneal boundary structures
#---------------------------------------------------------------------------------------------------
reset_timestep 100000
fix md g_other nvt temp ${T_start} ${T_end} $(100.0*v_tstep)
fix md g_other nvt temp 600 ${T_end} $(100.0*v_tstep)
fix md g_other nvt temp 600 200 $(100.0*v_tstep)
fix md g_other nvt temp 600 200 0.2000000000000000111

velocity all create ${T_start} 4928459 rot yes mom yes dist gaussian
velocity all create 600 4928459 rot yes mom yes dist gaussian
run 10000
Per MPI rank memory allocation (min/avg/max) = 4.917 | 4.917 | 4.917 Mbytes
   Step        Atoms         Temp          PotEng         KinEng         TotEng          Fmax     
    100000         144   600           -474.40311      11.09052           -463.3125855192  1.0307313e-07
    101000         144   617.01559     -467.4976       11.40504           -456.0925596961  1.1075441    
    102000         144   612.83264     -467.66097      11.327722          -456.3332500596  1.1675298    
    103000         144   537.65778     -467.93493      9.9381743          -457.9967585712  1.2824785    
    104000         144   511.77002     -467.83656      9.4596598          -458.3769048873  1.3270867    
    105000         144   482.10268     -469.0821       8.9112827          -460.1708153242  1.1785772    
    106000         144   428.97171     -470.45694      7.9291992          -462.5277392335  1.0552127    
    107000         144   416.69917     -470.37639      7.7023512          -462.6740382101  0.89222457   
    108000         144   422.4815      -471.22125      7.8092329          -463.4120170880  0.83792997   
    109000         144   368.72139     -471.88262      6.8155202          -465.0671000085  0.8650599    
    110000         144   322.26163     -472.29516      5.9567487          -466.3384096139  0.81761672   
Loop time of 0.865887 on 1 procs for 10000 steps with 144 atoms

Performance: 1995.642 ns/day, 0.012 hours/ns, 11548.853 timesteps/s, 1.663 Matom-step/s
99.7% CPU use with 1 MPI tasks x no OpenMP threads

MPI task timing breakdown:
Section |  min time  |  avg time  |  max time  |%varavg| %total
---------------------------------------------------------------
Pair    | 0.75599    | 0.75599    | 0.75599    |   0.0 | 87.31
Neigh   | 0.046479   | 0.046479   | 0.046479   |   0.0 |  5.37
Comm    | 0.042107   | 0.042107   | 0.042107   |   0.0 |  4.86
Output  | 4.3709e-05 | 4.3709e-05 | 4.3709e-05 |   0.0 |  0.01
Modify  | 0.010847   | 0.010847   | 0.010847   |   0.0 |  1.25
Other   |            | 0.01041    |            |       |  1.20

Nlocal:            144 ave         144 max         144 min
Histogram: 1 0 0 0 0 0 0 0 0 0
Nghost:           2385 ave        2385 max        2385 min
Histogram: 1 0 0 0 0 0 0 0 0 0
Neighs:          11063 ave       11063 max       11063 min
Histogram: 1 0 0 0 0 0 0 0 0 0

Total # of neighbors = 11063
Ave neighs/atom = 76.826389
Neighbor list builds = 96
Dangerous builds = 0
unfix md

#---------------------------------------------------------------------------------------------------
# Final relaxation
#---------------------------------------------------------------------------------------------------
velocity all set 0.0 0.0 0.0

min_style 	cg
min_modify dmax 0.1
minimize 	0.0 1.0e-6 10000 100000
Per MPI rank memory allocation (min/avg/max) = 6.042 | 6.042 | 6.042 Mbytes
   Step        Atoms         Temp          PotEng         KinEng         TotEng          Fmax     
    110000         144   0             -472.29516      0                  -472.2951583343  0.81761672   
    110073         144   0             -474.92911      0                  -474.9291138956  2.209639e-07 
Loop time of 0.0130331 on 1 procs for 73 steps with 144 atoms

98.1% CPU use with 1 MPI tasks x no OpenMP threads

Minimization stats:
  Stopping criterion = force tolerance
  Energy initial, next-to-last, final = 
     -472.295158334326  -474.929113895632  -474.929113895632
  Force two-norm initial, final = 4.3258266 9.7883962e-07
  Force max component initial, final = 0.81761672 2.209639e-07
  Final line search alpha, max atom move = 1 2.209639e-07
  Iterations, force evaluations = 73 144

MPI task timing breakdown:
Section |  min time  |  avg time  |  max time  |%varavg| %total
---------------------------------------------------------------
Pair    | 0.011766   | 0.011766   | 0.011766   |   0.0 | 90.28
Neigh   | 0          | 0          | 0          |   0.0 |  0.00
Comm    | 0.00059772 | 0.00059772 | 0.00059772 |   0.0 |  4.59
Output  | 0          | 0          | 0          |   0.0 |  0.00
Modify  | 2.0289e-05 | 2.0289e-05 | 2.0289e-05 |   0.0 |  0.16
Other   |            | 0.0006493  |            |       |  4.98

Nlocal:            144 ave         144 max         144 min
Histogram: 1 0 0 0 0 0 0 0 0 0
Nghost:           2364 ave        2364 max        2364 min
Histogram: 1 0 0 0 0 0 0 0 0 0
Neighs:          11053 ave       11053 max       11053 min
Histogram: 1 0 0 0 0 0 0 0 0 0

Total # of neighbors = 11053
Ave neighs/atom = 76.756944
Neighbor list builds = 0
Dangerous builds = 0

Total wall time: 0:00:00
