#Lammps coordinate file for CSL - Axis: [1 1 1]  Angle: (1, 3) -> 59.99999999999999  Plane indices: [0 1 1]  z-position: [5.4336451853244885 16.300935555973464]  Repeats: 1 1 (3, 3) (black, white)  Fixed: 2.228  Boundary equiv: True
144 atoms

2 atom types

0.0 9.920433458271871 xlo xhi
0.0 11.091381789479609 ylo yhi
0.0 21.734580741297954 zlo zhi
4.9602167291359365 27.901219101389643 47.41565715002534 xy xz yz

Atoms

1 1 16.43071791526279 18.16213768027286 6.339252716211903
2 1 21.390934644398722 18.16213768027286 6.339252716211903
3 1 18.910826279830758 19.27127585922082 7.244860247099319
4 1 21.390934644398722 20.38041403816878 8.150467777986734
5 1 24.697745797156013 21.859264943432727 6.339252716211903
6 1 16.43071791526279 20.38041403816878 8.150467777986734
7 1 13.950609550694821 21.489552217116746 9.05607530887415
8 2 16.43071791526279 22.598690396064704 9.961682839761563
9 1 13.950609550694821 19.27127585922082 7.244860247099318
10 2 21.390934644398722 22.598690396064704 9.961682839761563
11 2 18.910826279830758 23.707828575012662 10.867290370648979
12 2 21.390934644398722 24.816966753960628 11.772897901536393
13 1 18.910826279830758 21.489552217116746 9.05607530887415
14 1 19.737529068020077 21.859264943432727 6.339252716211903
15 1 17.257420703452112 22.968403122380693 7.244860247099318
16 1 19.737529068020077 24.07754130132865 8.150467777986734
17 1 24.697745797156013 24.07754130132865 8.150467777986734
18 1 22.21763743258805 25.186679480276613 9.05607530887415
19 2 24.697745797156017 26.295817659224575 9.961682839761563
20 1 22.217637432588045 22.968403122380693 7.244860247099319
21 1 23.04434022077737 25.556392206592598 6.339252716211902
22 1 25.52444858534534 26.665530385540563 7.244860247099317
23 2 16.43071791526279 24.816966753960628 11.772897901536393
24 1 13.950609550694821 25.926104932908586 12.678505432423808
25 1 16.43071791526279 27.035243111856552 13.584112963311222
26 2 13.950609550694821 23.707828575012666 10.867290370648979
27 1 21.390934644398726 27.035243111856552 13.584112963311222
28 1 18.910826279830758 28.14438129080451 14.489720494198638
29 1 21.390934644398726 29.25351946975247 15.395328025086053
30 1 18.910826279830758 25.926104932908586 12.678505432423808
31 2 19.73752906802008 26.295817659224575 9.961682839761563
32 2 17.257420703452112 27.404955838172533 10.867290370648979
33 2 19.73752906802008 28.5140940171205 11.772897901536393
34 1 17.257420703452112 25.186679480276617 9.05607530887415
35 1 18.084123491641435 25.556392206592598 6.339252716211902
36 1 18.084123491641435 27.774668564488522 8.150467777986734
37 2 24.697745797156017 28.5140940171205 11.772897901536393
38 1 22.21763743258805 29.623232196068457 12.678505432423808
39 1 24.697745797156017 30.732370375016423 13.584112963311224
40 2 22.21763743258805 27.404955838172533 10.867290370648979
41 1 23.04434022077737 27.774668564488522 8.150467777986734
42 1 20.564231856209403 28.883806743436487 9.05607530887415
43 2 23.04434022077737 29.992944922384446 9.961682839761563
44 1 20.564231856209403 26.665530385540563 7.244860247099318
45 2 25.52444858534534 31.102083101332404 10.867290370648977
46 1 25.52444858534534 28.88380674343648 9.05607530887415
47 1 16.43071791526279 29.253519469752476 15.395328025086052
48 1 13.950609550694823 28.14438129080451 14.489720494198638
49 1 19.73752906802008 30.732370375016423 13.584112963311222
50 1 17.257420703452112 31.84150855396438 14.489720494198638
51 1 19.73752906802008 32.95064673291234 15.395328025086053
52 1 17.257420703452112 29.623232196068457 12.678505432423808
53 2 18.084123491641435 29.992944922384446 9.961682839761563
54 2 18.084123491641435 32.21122128028037 11.772897901536393
55 1 24.697745797156017 32.95064673291234 15.395328025086052
56 1 22.21763743258805 31.84150855396438 14.48972049419864
57 2 23.04434022077737 32.21122128028037 11.772897901536393
58 1 20.564231856209403 33.32035945922833 12.678505432423808
59 1 23.04434022077737 34.429497638176294 13.584112963311224
60 2 20.564231856209403 31.102083101332404 10.867290370648979
61 1 25.524448585345336 35.53863581712425 14.489720494198636
62 1 25.524448585345333 33.32035945922833 12.678505432423808
63 1 18.084123491641435 34.429497638176294 13.58411296331122
64 1 18.084123491641435 36.64777399607221 15.395328025086052
65 1 23.04434022077737 36.64777399607221 15.39532802508605
66 1 20.564231856209403 35.53863581712425 14.489720494198638
67 1 0.0 2.218276357895922 1.8112150617748295
68 2 2.4801083645679682 1.1091381789479602 0.9056075308874146
69 2 4.960216729135935 0.0 -1.9455644930253686e-16
70 2 0.0 0.0 0.0
71 1 0.0 6.654829073687768 5.4336451853244885
72 1 2.4801083645679682 3.327414536843884 2.7168225926622442
73 1 2.4801083645679682 5.545690894739806 4.528037654437074
74 1 4.960216729135935 4.436552715791845 3.622430123549659
75 1 0.0 4.436552715791845 3.622430123549659
76 1 1.6534055763786455 5.915403621055794 1.811215061774829
77 2 7.440325093703903 1.1091381789479602 0.9056075308874145
78 1 7.440325093703903 3.327414536843884 2.7168225926622442
79 1 4.960216729135935 2.218276357895922 1.8112150617748293
80 2 4.133513940946612 4.806265442107832 0.9056075308874143
81 2 6.61362230551458 3.697127263159871 -5.836693479076105e-16
82 2 1.6534055763786455 3.697127263159871 -3.8911289860507373e-16
83 1 1.6534055763786455 10.351956336847639 5.4336451853244885
84 1 7.440325093703903 5.545690894739806 4.528037654437074
85 1 4.960216729135935 6.654829073687768 5.4336451853244885
86 1 4.133513940946612 7.024541800003755 2.716822592662244
87 1 4.133513940946612 9.242818157899677 4.528037654437074
88 1 6.61362230551458 8.133679978951715 3.6224301235496585
89 1 1.6534055763786455 8.133679978951717 3.6224301235496585
90 1 3.306811152757291 9.612530884215664 1.8112150617748288
91 2 9.093730670082548 4.806265442107832 0.9056075308874142
92 1 9.093730670082547 7.024541800003755 2.716822592662244
93 1 6.61362230551458 5.915403621055793 1.8112150617748288
94 2 5.7869195173252574 8.503392705267704 0.9056075308874139
95 2 8.267027881893226 7.394254526319742 -9.727822465126844e-16
96 2 3.306811152757291 7.394254526319742 -7.782257972101475e-16
97 1 3.306811152757291 14.04908360000751 5.433645185324488
98 1 9.093730670082547 9.242818157899677 4.528037654437074
99 1 6.613622305514581 10.351956336847639 5.4336451853244885
100 1 5.7869195173252574 10.721669063163626 2.7168225926622434
101 1 5.7869195173252574 12.939945421059548 4.528037654437073
102 1 8.267027881893226 11.830807242111586 3.622430123549658
103 1 3.306811152757291 11.830807242111588 3.622430123549658
104 2 10.747136246461192 8.503392705267704 0.9056075308874137
105 1 10.747136246461192 10.721669063163626 2.7168225926622434
106 1 8.267027881893226 9.612530884215664 1.8112150617748286
107 1 27.901219101389643 40.76082807633757 16.300935555973467
108 1 10.747136246461192 12.939945421059548 4.528037654437073
109 1 8.267027881893226 14.04908360000751 5.433645185324488
110 1 27.901219101389643 45.197380792129415 19.923365679523123
111 1 30.38132746595761 41.86996625528553 17.20654308686088
112 1 30.38132746595761 44.08824261318146 19.01775814863571
113 1 32.86143583052558 42.97910443423349 18.112150617748295
114 1 27.901219101389643 42.97910443423349 18.112150617748295
115 1 29.554624677768288 44.45795533949744 16.300935555973464
116 1 35.34154419509354 41.86996625528553 17.20654308686088
117 1 32.86143583052558 40.76082807633757 16.300935555973464
118 2 30.38132746595761 46.306518971077374 20.82897321041054
119 1 29.554624677768288 48.894508055289286 19.923365679523123
120 1 35.34154419509354 44.08824261318145 19.017758148635707
121 2 35.34154419509355 46.306518971077374 20.82897321041054
122 1 32.86143583052558 45.197380792129415 19.923365679523126
123 1 32.034733042336256 45.567093518445404 17.20654308686088
124 1 32.034733042336256 47.78536987634133 19.01775814863571
125 1 34.514841406904225 46.67623169739336 18.112150617748295
126 1 29.554624677768288 46.67623169739336 18.112150617748295
127 1 31.208030254146934 48.15508260265731 16.300935555973464
128 1 36.99494977147219 45.567093518445404 17.20654308686088
129 1 34.514841406904225 44.45795533949744 16.300935555973464
130 2 32.034733042336256 50.003646234237245 20.82897321041054
131 1 31.208030254146934 52.59163531844916 19.923365679523123
132 1 36.99494977147219 47.78536987634132 19.017758148635707
133 2 36.99494977147219 50.003646234237245 20.82897321041054
134 1 34.514841406904225 48.894508055289286 19.923365679523126
135 1 33.6881386187149 49.264220781605275 17.20654308686088
136 1 33.6881386187149 51.4824971395012 19.01775814863571
137 1 36.16824698328287 50.37335896055323 18.112150617748295
138 1 31.208030254146934 50.37335896055323 18.112150617748295
139 1 38.64835534785084 49.264220781605275 17.20654308686088
140 1 36.16824698328287 48.15508260265731 16.300935555973464
141 2 33.6881386187149 53.70077349739712 20.82897321041054
142 1 38.64835534785084 51.48249713950119 19.017758148635707
143 2 38.64835534785084 53.70077349739712 20.82897321041054
144 1 36.16824698328287 52.59163531844916 19.923365679523126
