ITEM: TIMESTEP
100000
ITEM: NUMBER OF ATOMS
144
ITEM: BOX BOUNDS xy xz yz pp pp pp
0.0000000000000000e+00 3.2861435830525579e+01 4.9602167291359365e+00
0.0000000000000000e+00 5.2961348044765145e+01 1.7980785643117773e+01
0.0000000000000000e+00 2.5734580741297954e+01 4.1869966255285533e+01
ITEM: ATOMS id type x y z c_peatom
70 2 0 0 0 -3.33731
82 2 1.65341 3.69713 0 -3.34188
69 2 4.96022 0 0 -3.33731
81 2 6.61362 3.69713 0 -3.34188
80 2 4.13351 4.80627 0.905608 -3.34553
86 1 4.15787 6.99111 2.88646 -3.3703
88 1 6.5972 8.08492 3.83966 -3.28711
91 2 9.09373 4.80627 0.905608 -3.34553
92 1 9.11809 6.99111 2.88646 -3.3703
93 1 6.63658 5.90157 1.9376 -3.38147
94 2 5.78692 8.50339 0.905608 -3.33975
95 2 8.26703 7.39425 0 -3.34188
76 1 11.5968 5.90157 1.9376 -3.38147
89 1 11.5574 8.08492 3.83966 -3.28711
96 2 13.2272 7.39425 0 -3.34188
104 2 10.7471 8.50339 0.905608 -3.33975
87 1 4.12072 9.11333 4.88113 -3.09038
68 2 7.44033 12.2005 0.905608 -3.34262
98 1 9.08094 9.11333 4.88113 -3.09038
100 1 5.79121 10.6583 2.89977 -3.3508
101 1 5.82533 12.8669 4.75806 -3.12209
102 1 8.27133 11.7402 3.82159 -3.31015
106 1 8.26882 9.57421 1.96116 -3.36723
77 2 12.4005 12.2005 0.905608 -3.34262
90 1 13.229 9.57421 1.96116 -3.36723
103 1 13.2315 11.7402 3.82159 -3.31015
105 1 10.7514 10.6583 2.89977 -3.3508
108 1 10.7855 12.8669 4.75806 -3.12209
72 1 7.48984 14.3719 2.87192 -3.37792
73 1 7.55942 16.5736 4.74492 -3.08297
74 1 9.99194 15.4534 3.74614 -3.31182
78 1 12.4501 14.3719 2.87192 -3.37792
79 1 9.93949 13.261 1.93297 -3.37292
84 1 12.5196 16.5736 4.74492 -3.08297
67 1 14.8997 13.261 1.93297 -3.37292
75 1 14.9522 15.4534 3.74614 -3.31182
99 1 6.59359 10.2309 5.96563 -2.87883
83 1 11.5538 10.2309 5.96563 -2.87883
9 1 8.95879 16.5787 9.04222 -3.09198
109 1 8.30398 13.9802 5.78059 -2.93815
1 1 11.4632 15.487 7.93848 -2.87078
3 1 13.919 16.5787 9.04222 -3.09198
6 1 11.4317 17.6461 10.0328 -3.303
97 1 13.2642 13.9802 5.78059 -2.93815
85 1 10.0844 17.4755 5.79714 -2.87527
2 1 16.4235 15.487 7.93848 -2.87078
4 1 16.3919 17.6461 10.0328 -3.303
71 1 15.0446 17.4755 5.79714 -2.87527
5 1 9.87078 19.3011 8.02861 -2.87299
15 1 12.3165 20.2449 9.07393 -3.09174
17 1 9.84691 21.3435 10.0795 -3.3193
14 1 14.831 19.3011 8.02861 -2.87299
16 1 14.8071 21.3435 10.0795 -3.3193
20 1 17.2767 20.2449 9.07393 -3.09174
22 1 10.7147 23.9399 9.1203 -3.12458
35 1 13.2226 22.8408 8.08276 -2.95628
36 1 13.1539 25.0587 10.052 -3.32308
21 1 18.1828 22.8408 8.08276 -2.95628
41 1 18.1141 25.0587 10.052 -3.32308
44 1 15.6749 23.9399 9.1203 -3.12458
7 1 8.97845 18.7425 10.9476 -3.38013
8 2 11.4705 19.8258 11.9617 -3.3787
13 1 13.9387 18.7425 10.9476 -3.38013
10 2 16.4307 19.8258 11.9617 -3.3787
26 2 18.9108 20.935 12.8673 -3.35767
32 2 12.2972 24.6321 12.8673 -3.35875
34 1 12.3227 22.4266 10.9549 -3.38594
18 1 17.283 22.4266 10.9549 -3.38594
31 2 14.7773 23.523 11.9617 -3.37865
33 2 14.7773 25.7412 13.7729 -3.37261
40 2 17.2574 24.6321 12.8673 -3.35875
42 1 15.6191 26.146 10.9508 -3.3679
19 2 19.7375 23.523 11.9617 -3.37865
37 2 19.7375 25.7412 13.7729 -3.37261
46 1 20.5793 26.146 10.9508 -3.3679
52 1 12.2821 26.8153 14.7838 -3.3679
53 2 13.1239 27.2201 11.9617 -3.37261
54 2 13.1239 29.4384 13.7729 -3.37865
38 1 17.2423 26.8153 14.7838 -3.3679
43 2 18.0841 27.2201 11.9617 -3.37261
57 2 18.0841 29.4384 13.7729 -3.37865
58 1 15.5785 30.5348 14.7796 -3.38594
60 2 15.604 28.3292 12.8673 -3.35875
45 2 20.5642 28.3292 12.8673 -3.35875
62 1 20.5387 30.5348 14.7796 -3.38594
23 2 16.4307 33.1355 13.7729 -3.3787
11 2 18.9108 32.0264 12.8673 -3.35767
12 2 21.3909 33.1355 13.7729 -3.3787
30 1 18.9228 34.2189 14.787 -3.38013
24 1 23.883 34.2189 14.787 -3.38013
49 1 14.7473 27.9027 15.6826 -3.32308
51 1 14.6787 30.1206 17.6518 -2.95628
56 1 17.1866 29.0215 16.6143 -3.12458
39 1 19.7075 27.9027 15.6826 -3.32308
50 1 22.1468 29.0215 16.6143 -3.12458
55 1 19.6389 30.1206 17.6518 -2.95628
59 1 18.0543 31.6179 15.655 -3.3193
65 1 18.0304 33.6602 17.706 -2.87299
66 1 15.5847 32.7164 16.6607 -3.09174
61 1 20.545 32.7164 16.6607 -3.09174
63 1 23.0145 31.6179 15.655 -3.3193
64 1 22.9907 33.6602 17.706 -2.87299
107 1 17.8168 35.4859 19.9374 -2.87527
25 1 16.4695 35.3153 15.7017 -3.303
47 1 16.438 37.4744 17.7961 -2.87078
117 1 22.777 35.4859 19.9374 -2.87527
27 1 21.4298 35.3153 15.7017 -3.303
28 1 18.9424 36.3826 16.6924 -3.09198
29 1 21.3982 37.4744 17.7961 -2.87078
115 1 19.5972 38.9812 19.954 -2.93815
48 1 23.9026 36.3826 16.6924 -3.09198
129 1 24.5575 38.9812 19.954 -2.93815
127 1 21.3076 42.7304 19.769 -2.87883
140 1 26.2678 42.7304 19.769 -2.87883
110 1 17.9617 39.7003 23.8016 -3.37292
114 1 17.9093 37.5079 21.9884 -3.31182
111 1 20.3418 36.3878 20.9897 -3.08297
112 1 20.4114 38.5894 22.8627 -3.37792
113 1 22.8695 37.5079 21.9884 -3.31182
122 1 22.9219 39.7003 23.8016 -3.37292
116 1 25.302 36.3878 20.9897 -3.08297
120 1 25.3716 38.5894 22.8627 -3.37792
118 2 20.4609 40.7608 24.829 -3.34262
119 1 19.6324 43.3871 23.7734 -3.36723
123 1 22.0759 40.0945 20.9765 -3.12209
124 1 22.11 42.3031 22.8348 -3.3508
126 1 19.6299 41.2212 21.913 -3.31015
121 2 25.4211 40.7608 24.829 -3.34262
125 1 24.5901 41.2212 21.913 -3.31015
128 1 27.0361 40.0945 20.9765 -3.12209
132 1 27.0702 42.3031 22.8348 -3.3508
134 1 24.5926 43.3871 23.7734 -3.36723
135 1 23.7805 43.848 20.8535 -3.09038
139 1 28.7407 43.848 20.8535 -3.09038
130 2 22.1143 44.458 24.829 -3.33975
131 1 21.2646 47.0598 23.797 -3.38147
138 1 21.304 44.8764 21.8949 -3.28711
133 2 27.0745 44.458 24.829 -3.33975
136 1 23.7433 45.9702 22.8481 -3.3703
137 1 26.2642 44.8764 21.8949 -3.28711
141 2 23.7677 48.1551 24.829 -3.34553
144 1 26.2249 47.0598 23.797 -3.38147
142 1 28.7036 45.9702 22.8481 -3.3703
143 2 28.7279 48.1551 24.829 -3.34553
