#Lammps coordinate file for CSL - Axis: [1 1 1]  Angle: (1, 3) -> 59.99999999999999  Plane indices: [0 1 1]  z-position: [5.1836451853244885 15.550935555973464]  Repeats: 1 1 (3, 3) (black, white)  Fixed: 2.228  Boundary equiv: True
144 atoms

2 atom types

0.0 9.920433458271871 xlo xhi
0.0 11.091381789479609 ylo yhi
0.0 20.734580741297954 zlo zhi
4.9602167291359365 11.160487640555862 46.02923442634038 xy xz yz

Atoms

1 1 8.060352184845897 17.468926318430384 5.839252716211904
2 1 13.02056891398183 17.468926318430384 5.839252716211904
3 1 10.540460549413865 18.578064497378346 6.74486024709932
4 1 13.020568913981831 19.687202676326308 7.650467777986734
5 1 16.327380066739124 21.166053581590255 5.839252716211904
6 1 8.060352184845897 19.687202676326308 7.650467777986734
7 1 5.58024382027793 20.79634085527427 8.55607530887415
8 2 8.060352184845897 21.905479034222232 9.461682839761563
9 1 5.58024382027793 18.57806449737835 6.744860247099319
10 2 13.020568913981831 21.905479034222232 9.461682839761563
11 2 10.540460549413865 23.01461721317019 10.367290370648979
12 2 13.020568913981833 24.123755392118152 11.272897901536393
13 1 10.540460549413865 20.79634085527427 8.55607530887415
14 1 11.367163337603186 21.166053581590255 5.839252716211904
15 1 8.88705497303522 22.275191760538217 6.744860247099319
16 1 11.367163337603188 23.38432993948618 7.650467777986734
17 1 16.327380066739124 23.38432993948618 7.650467777986734
18 1 13.847271702171156 24.493468118434137 8.55607530887415
19 2 16.327380066739124 25.6026062973821 9.461682839761563
20 1 13.847271702171154 22.275191760538217 6.74486024709932
21 1 14.673974490360479 24.863180844750126 5.839252716211903
22 1 17.154082854928447 25.972319023698088 6.744860247099318
23 2 8.060352184845899 24.123755392118152 11.272897901536393
24 1 5.580243820277931 25.232893571066114 12.178505432423808
25 1 8.060352184845899 26.342031750014076 13.084112963311222
26 2 5.580243820277931 23.01461721317019 10.367290370648979
27 1 13.020568913981833 26.342031750014076 13.084112963311222
28 1 10.540460549413867 27.451169928962035 13.989720494198638
29 1 13.020568913981833 28.560308107909997 14.895328025086053
30 1 10.540460549413867 25.232893571066114 12.178505432423808
31 2 11.367163337603188 25.602606297382103 9.461682839761563
32 2 8.887054973035221 26.71174447633006 10.367290370648979
33 2 11.367163337603188 27.820882655278023 11.272897901536393
34 1 8.887054973035221 24.49346811843414 8.55607530887415
35 1 9.713757761224542 24.863180844750126 5.839252716211903
36 1 9.713757761224542 27.08145720264605 7.650467777986734
37 2 16.327380066739124 27.820882655278023 11.272897901536393
38 1 13.847271702171156 28.930020834225985 12.178505432423808
39 1 16.327380066739124 30.039159013173947 13.084112963311224
40 2 13.847271702171156 26.71174447633006 10.367290370648979
41 1 14.673974490360479 27.081457202646046 7.650467777986734
42 1 12.19386612579251 28.19059538159401 8.55607530887415
43 2 14.673974490360479 29.29973356054197 9.461682839761563
44 1 12.19386612579251 25.972319023698088 6.744860247099319
45 2 17.154082854928447 30.408871739489932 10.367290370648977
46 1 17.154082854928447 28.190595381594008 8.55607530887415
47 1 8.0603521848459 28.56030810791 14.895328025086052
48 1 5.580243820277932 27.451169928962038 13.989720494198638
49 1 11.367163337603188 30.039159013173947 13.084112963311222
50 1 8.887054973035223 31.148297192121905 13.989720494198638
51 1 11.36716333760319 32.25743537106987 14.895328025086053
52 1 8.887054973035223 28.930020834225985 12.178505432423808
53 2 9.713757761224542 29.29973356054197 9.461682839761563
54 2 9.713757761224544 31.518009918437894 11.272897901536393
55 1 16.327380066739124 32.25743537106987 14.895328025086052
56 1 13.847271702171156 31.148297192121905 13.98972049419864
57 2 14.673974490360479 31.518009918437894 11.272897901536393
58 1 12.193866125792512 32.627148097385856 12.178505432423808
59 1 14.67397449036048 33.736286276333814 13.084112963311224
60 2 12.19386612579251 30.408871739489932 10.367290370648979
61 1 17.154082854928447 34.84542445528177 13.989720494198636
62 1 17.154082854928443 32.627148097385856 12.178505432423808
63 1 9.713757761224544 33.736286276333814 13.08411296331122
64 1 9.713757761224544 35.95456263422974 14.895328025086052
65 1 14.67397449036048 35.95456263422974 14.89532802508605
66 1 12.193866125792512 34.84542445528177 13.989720494198638
67 1 0.0 2.218276357895922 1.811215061774829
68 2 2.480108364567968 1.109138178947962 0.9056075308874146
69 2 4.960216729135936 0.0 -2.220446049250313e-16
70 2 0.0 0.0 0.0
71 1 0.0 6.654829073687768 5.1836451853244885
72 1 2.480108364567968 3.327414536843884 2.7168225926622442
73 1 2.4801083645679682 5.545690894739806 4.528037654437074
74 1 4.960216729135936 4.436552715791845 3.6224301235496585
75 1 0.0 4.436552715791845 3.6224301235496585
76 1 1.6534055763786455 5.915403621055794 1.811215061774829
77 2 7.440325093703903 1.109138178947962 0.9056075308874144
78 1 7.440325093703903 3.327414536843884 2.7168225926622442
79 1 4.960216729135936 2.218276357895922 1.811215061774829
80 2 4.133513940946613 4.806265442107832 0.9056075308874144
81 2 6.61362230551458 3.697127263159871 -6.106226635438361e-16
82 2 1.6534055763786455 3.697127263159871 -3.885780586188048e-16
83 1 1.6534055763786455 10.351956336847639 5.1836451853244885
84 1 7.440325093703903 5.545690894739806 4.528037654437074
85 1 4.960216729135936 6.654829073687768 5.1836451853244885
86 1 4.133513940946613 7.024541800003755 2.716822592662244
87 1 4.133513940946613 9.242818157899677 4.528037654437074
88 1 6.61362230551458 8.133679978951715 3.6224301235496585
89 1 1.6534055763786455 8.133679978951717 3.6224301235496585
90 1 3.3068111527572905 9.612530884215664 1.8112150617748286
91 2 9.093730670082548 4.806265442107832 0.9056075308874142
92 1 9.093730670082547 7.024541800003755 2.716822592662244
93 1 6.61362230551458 5.915403621055793 1.8112150617748286
94 2 5.7869195173252574 8.503392705267704 0.905607530887414
95 2 8.267027881893226 7.394254526319742 -9.992007221626409e-16
96 2 3.3068111527572905 7.394254526319742 -7.771561172376096e-16
97 1 3.306811152757291 14.04908360000751 5.183645185324488
98 1 9.093730670082547 9.242818157899677 4.528037654437074
99 1 6.613622305514581 10.351956336847639 5.1836451853244885
100 1 5.786919517325258 10.721669063163626 2.7168225926622434
101 1 5.786919517325258 12.939945421059548 4.528037654437073
102 1 8.267027881893226 11.830807242111586 3.6224301235496585
103 1 3.306811152757291 11.830807242111588 3.6224301235496585
104 2 10.747136246461192 8.503392705267704 0.9056075308874137
105 1 10.747136246461192 10.721669063163626 2.7168225926622434
106 1 8.267027881893226 9.612530884215664 1.8112150617748282
107 1 11.160487640555859 39.374405352652616 15.550935555973467
108 1 10.747136246461192 12.939945421059548 4.528037654437073
109 1 8.267027881893226 14.04908360000751 5.183645185324488
110 1 11.160487640555859 43.810958068444464 18.923365679523123
111 1 13.640596005123825 40.48354353160058 16.20654308686088
112 1 13.640596005123827 42.701819889496505 18.01775814863571
113 1 16.120704369691794 41.59268171054855 17.112150617748295
114 1 11.160487640555859 41.59268171054855 17.112150617748295
115 1 12.813893216934503 43.07153261581249 15.550935555973464
116 1 18.600812734259762 40.48354353160058 16.20654308686088
117 1 16.120704369691794 39.374405352652616 15.550935555973464
118 2 13.640596005123827 44.92009624739242 19.82897321041054
119 1 12.813893216934504 47.508085331604335 18.923365679523123
120 1 18.600812734259762 42.701819889496505 18.017758148635707
121 2 18.600812734259762 44.92009624739242 19.82897321041054
122 1 16.120704369691794 43.810958068444464 18.923365679523126
123 1 15.29400158150247 44.180670794760445 16.20654308686088
124 1 15.294001581502473 46.398947152656376 18.01775814863571
125 1 17.77410994607044 45.28980897370842 17.112150617748295
126 1 12.813893216934504 45.28980897370842 17.112150617748295
127 1 14.467298793313148 46.76865987897236 15.550935555973464
128 1 20.254218310638407 44.180670794760445 16.20654308686088
129 1 17.77410994607044 43.07153261581249 15.550935555973464
130 2 15.294001581502473 48.61722351055229 19.82897321041054
131 1 14.46729879331315 51.205212594764205 18.923365679523123
132 1 20.254218310638407 46.398947152656376 18.017758148635707
133 2 20.254218310638407 48.61722351055229 19.82897321041054
134 1 17.77410994607044 47.508085331604335 18.923365679523126
135 1 16.947407157881116 47.877798057920316 16.20654308686088
136 1 16.947407157881116 50.09607441581625 18.01775814863571
137 1 19.427515522449085 48.98693623686829 17.112150617748295
138 1 14.46729879331315 48.98693623686829 17.112150617748295
139 1 21.907623887017053 47.877798057920316 16.20654308686088
140 1 19.427515522449085 46.76865987897236 15.550935555973464
141 2 16.947407157881116 52.314350773712164 19.82897321041054
142 1 21.907623887017053 50.09607441581625 18.017758148635707
143 2 21.907623887017053 52.314350773712164 19.82897321041054
144 1 19.427515522449085 51.205212594764205 18.923365679523126
