ITEM: TIMESTEP
50
ITEM: NUMBER OF ATOMS
144
ITEM: BOX BOUNDS xy xz yz pp pp pp
0.0000000000000000e+00 2.9141273283673627e+01 4.9602167291359365e+00
0.0000000000000000e+00 3.9097120807915630e+01 1.4260623096265821e+01
0.0000000000000000e+00 2.0734580741297954e+01 2.8005739018436021e+01
ITEM: ATOMS id type x y z c_peatom
70 2 0 0 0 -3.32568
80 2 4.13351 4.80627 0.905608 -3.32296
82 2 1.65341 3.69713 0 -3.32942
69 2 4.96022 0 0 -3.32568
81 2 6.61362 3.69713 0 -3.32942
91 2 9.09373 4.80627 0.905608 -3.32296
86 1 4.02305 7.1598 2.53097 -3.28423
88 1 6.37406 8.33871 3.60685 -3.26059
92 1 8.98326 7.1598 2.53097 -3.28423
93 1 6.56466 6.00329 1.71862 -3.34945
94 2 5.78692 8.50339 0.905608 -3.35737
95 2 8.26703 7.39425 0 -3.32942
98 1 8.60277 9.44045 4.33486 -3.20133
106 1 8.24186 9.67913 1.709 -3.31889
76 1 11.5249 6.00329 1.71862 -3.34945
87 1 13.563 9.44045 4.33486 -3.20133
89 1 11.3343 8.33871 3.60685 -3.26059
90 1 13.2021 9.67913 1.709 -3.31889
96 2 13.2272 7.39425 0 -3.32942
104 2 10.7471 8.50339 0.905608 -3.35737
68 2 7.44033 12.2005 0.905608 -3.33803
72 1 7.49637 14.5178 2.56516 -3.3205
100 1 5.79184 10.7965 2.59796 -3.31708
102 1 8.37379 11.9954 3.47663 -3.32548
109 1 8.52866 14.4077 5.17743 -3.33323
77 2 12.4005 12.2005 0.905608 -3.33803
78 1 12.4566 14.5178 2.56516 -3.3205
79 1 9.94457 13.3305 1.68034 -3.31855
97 1 13.4889 14.4077 5.17743 -3.33323
103 1 13.334 11.9954 3.47663 -3.32548
105 1 10.7521 10.7965 2.59796 -3.31708
108 1 10.938 13.1854 4.28893 -3.28118
67 1 14.9048 13.3305 1.68034 -3.31855
101 1 15.8982 13.1854 4.28893 -3.28118
74 1 10.0063 15.5631 3.33363 -3.23981
84 1 12.4795 16.825 4.24194 -3.24946
73 1 17.4397 16.825 4.24194 -3.24946
75 1 14.9665 15.5631 3.33363 -3.23981
2 1 4.84939 8.52428 6.38299 -2.98247
1 1 9.8096 8.52428 6.38299 -2.98247
9 1 7.30852 9.38784 6.91945 -3.26537
3 1 12.2687 9.38784 6.91945 -3.26537
5 1 8.15555 11.9029 6.0774 -3.29058
6 1 9.69405 10.6626 7.86494 -3.26936
7 1 7.17192 11.7197 8.65832 -3.35207
8 2 9.61042 12.8937 9.46168 -3.31481
17 1 7.98032 14.2697 7.77299 -3.31958
99 1 5.83347 10.7851 5.22123 -3.24479
10 2 14.5706 12.8937 9.46168 -3.31481
13 1 12.1321 11.7197 8.65832 -3.35207
14 1 13.1158 11.9029 6.0774 -3.29058
15 1 10.5265 13.0894 6.92297 -3.27996
16 1 12.9405 14.2697 7.77299 -3.31958
83 1 10.7937 10.7851 5.22123 -3.24479
4 1 14.6543 10.6626 7.86494 -3.26936
20 1 15.4867 13.0894 6.92297 -3.27996
22 1 8.62691 16.8359 6.87892 -3.28761
31 2 12.9172 16.5909 9.46168 -3.32137
34 1 10.4191 15.4292 8.6527 -3.34094
35 1 11.0553 15.4924 6.04081 -3.2884
36 1 11.2306 17.9083 7.6872 -3.30273
42 1 13.7325 19.11 8.7369 -3.28434
44 1 13.5871 16.8359 6.87892 -3.28761
85 1 10.0039 17.6449 4.88486 -2.96687
18 1 15.3793 15.4292 8.6527 -3.34094
19 2 17.8774 16.5909 9.46168 -3.32137
21 1 16.0155 15.4924 6.04081 -3.2884
41 1 16.1908 17.9083 7.6872 -3.30273
46 1 18.6927 19.11 8.7369 -3.28434
71 1 14.9642 17.6449 4.88486 -2.96687
53 2 11.2638 20.288 9.46168 -3.34826
43 2 16.224 20.288 9.46168 -3.34826
32 2 10.4371 17.7 10.3673 -3.34214
33 2 12.9172 18.8091 11.2729 -3.34826
37 2 17.8774 18.8091 11.2729 -3.34826
40 2 15.3973 17.7 10.3673 -3.34214
49 1 12.9505 21.1888 13.0474 -3.30273
51 1 13.1258 23.6047 14.6938 -3.2884
52 1 10.4486 19.9871 11.9977 -3.28434
54 2 11.2638 22.5063 11.2729 -3.32137
58 1 13.762 23.6679 12.0819 -3.34094
60 2 13.7439 21.3971 10.3673 -3.34214
38 1 15.4088 19.9871 11.9977 -3.28434
39 1 17.9107 21.1888 13.0474 -3.30273
45 2 18.7042 21.3971 10.3673 -3.34214
55 1 18.086 23.6047 14.6938 -3.2884
56 1 15.5541 22.2612 13.8557 -3.28761
57 2 16.224 22.5063 11.2729 -3.32137
62 1 18.7222 23.6679 12.0819 -3.34094
50 1 20.5144 22.2612 13.8557 -3.28761
26 2 12.0905 25.0943 10.3673 -3.35631
66 1 13.6546 26.0077 13.8116 -3.27996
11 2 17.0507 25.0943 10.3673 -3.35631
23 2 14.5706 26.2034 11.2729 -3.31481
25 1 14.487 28.4345 12.8696 -3.26936
30 1 17.0091 27.3774 12.0763 -3.35207
59 1 16.2007 24.8275 12.9616 -3.31958
61 1 18.6148 26.0077 13.8116 -3.27996
65 1 16.0255 27.1942 14.6572 -3.29058
12 2 19.5309 26.2034 11.2729 -3.31481
24 1 21.9694 27.3774 12.0763 -3.35207
27 1 19.4472 28.4345 12.8696 -3.26936
63 1 21.161 24.8275 12.9616 -3.31958
64 1 20.9857 27.1942 14.6572 -3.29058
28 1 16.8725 29.7093 13.8151 -3.26537
29 1 19.3317 30.5728 14.3516 -2.98247
48 1 21.8328 29.7093 13.8151 -3.26537
47 1 24.2919 30.5728 14.3516 -2.98247
107 1 14.1771 21.4522 15.8497 -2.96687
114 1 14.1748 23.534 17.401 -3.23981
116 1 11.7016 22.2721 16.4926 -3.24946
111 1 16.6618 22.2721 16.4926 -3.24946
113 1 19.135 23.534 17.401 -3.23981
117 1 19.1373 21.4522 15.8497 -2.96687
110 1 14.2365 25.7666 19.0542 -3.31855
128 1 13.2431 25.9118 16.4456 -3.28118
112 1 16.6847 24.5793 18.1694 -3.3205
115 1 15.6524 24.6894 15.5571 -3.33323
118 2 16.7407 26.8966 19.829 -3.33803
122 1 19.1967 25.7666 19.0542 -3.31855
123 1 18.2033 25.9118 16.4456 -3.28118
124 1 18.3892 28.3006 18.1366 -3.31708
126 1 15.8073 27.1018 17.2579 -3.32548
127 1 18.3476 28.312 15.5134 -3.24479
120 1 21.6449 24.5793 18.1694 -3.3205
121 2 21.7009 26.8966 19.829 -3.33803
125 1 20.7675 27.1018 17.2579 -3.32548
129 1 20.6126 24.6894 15.5571 -3.33323
132 1 23.3494 28.3006 18.1366 -3.31708
140 1 23.3078 28.312 15.5134 -3.24479
119 1 15.9392 29.418 19.0256 -3.31889
130 2 18.3941 30.5937 19.829 -3.35737
131 1 17.6164 33.0938 19.016 -3.34945
138 1 17.807 30.7584 17.1277 -3.26059
139 1 15.5783 29.6567 16.3997 -3.20133
133 2 23.3544 30.5937 19.829 -3.35737
134 1 20.8994 29.418 19.0256 -3.31889
135 1 20.5385 29.6567 16.3997 -3.20133
136 1 20.158 31.9373 18.2036 -3.28423
137 1 22.7672 30.7584 17.1277 -3.26059
144 1 22.5766 33.0938 19.016 -3.34945
142 1 25.1182 31.9373 18.2036 -3.28423
141 2 20.0475 34.2909 19.829 -3.32296
143 2 25.0078 34.2909 19.829 -3.32296
