#Lammps coordinate file for CSL - Axis: [1 1 1]  Angle: (1, 3) -> 59.99999999999999  Plane indices: [0 1 1]  z-position: [5.1836451853244885 15.550935555973464]  Repeats: 1 1 (3, 3) (black, white)  Fixed: 2.228  Boundary equiv: True
144 atoms

2 atom types

0.0 9.920433458271871 xlo xhi
0.0 11.091381789479609 ylo yhi
0.0 20.734580741297954 zlo zhi
4.9602167291359365 14.880650187407817 46.02923442634038 xy xz yz

Atoms

1 1 9.920433458271875 17.468926318430384 5.839252716211904
2 1 14.880650187407808 17.468926318430384 5.839252716211904
3 1 12.400541822839841 18.578064497378346 6.74486024709932
4 1 14.88065018740781 19.687202676326308 7.650467777986734
5 1 18.1874613401651 21.166053581590255 5.839252716211904
6 1 9.920433458271875 19.687202676326308 7.650467777986734
7 1 7.440325093703907 20.79634085527427 8.55607530887415
8 2 9.920433458271875 21.905479034222232 9.461682839761563
9 1 7.440325093703907 18.57806449737835 6.744860247099319
10 2 14.88065018740781 21.905479034222232 9.461682839761563
11 2 12.400541822839843 23.01461721317019 10.367290370648979
12 2 14.88065018740781 24.123755392118152 11.272897901536393
13 1 12.400541822839841 20.79634085527427 8.55607530887415
14 1 13.227244611029164 21.166053581590255 5.839252716211904
15 1 10.747136246461197 22.275191760538217 6.744860247099319
16 1 13.227244611029164 23.38432993948618 7.650467777986734
17 1 18.1874613401651 23.38432993948618 7.650467777986734
18 1 15.707352975597132 24.493468118434137 8.55607530887415
19 2 18.1874613401651 25.6026062973821 9.461682839761563
20 1 15.707352975597132 22.275191760538217 6.74486024709932
21 1 16.534055763786455 24.863180844750126 5.839252716211903
22 1 19.014164128354423 25.972319023698088 6.744860247099318
23 2 9.920433458271877 24.123755392118152 11.272897901536393
24 1 7.440325093703908 25.232893571066114 12.178505432423808
25 1 9.920433458271877 26.342031750014076 13.084112963311222
26 2 7.440325093703908 23.01461721317019 10.367290370648979
27 1 14.88065018740781 26.342031750014076 13.084112963311222
28 1 12.400541822839845 27.451169928962035 13.989720494198638
29 1 14.88065018740781 28.560308107909997 14.895328025086053
30 1 12.400541822839845 25.232893571066114 12.178505432423808
31 2 13.227244611029164 25.602606297382103 9.461682839761563
32 2 10.7471362464612 26.71174447633006 10.367290370648979
33 2 13.227244611029164 27.820882655278023 11.272897901536393
34 1 10.7471362464612 24.49346811843414 8.55607530887415
35 1 11.573839034650518 24.863180844750126 5.839252716211903
36 1 11.573839034650518 27.08145720264605 7.650467777986734
37 2 18.1874613401651 27.820882655278023 11.272897901536393
38 1 15.707352975597132 28.930020834225985 12.178505432423808
39 1 18.1874613401651 30.039159013173947 13.084112963311224
40 2 15.707352975597132 26.71174447633006 10.367290370648979
41 1 16.534055763786455 27.081457202646046 7.650467777986734
42 1 14.053947399218487 28.19059538159401 8.55607530887415
43 2 16.534055763786455 29.29973356054197 9.461682839761563
44 1 14.053947399218487 25.972319023698088 6.744860247099319
45 2 19.014164128354423 30.408871739489932 10.367290370648977
46 1 19.014164128354423 28.190595381594008 8.55607530887415
47 1 9.920433458271877 28.56030810791 14.895328025086052
48 1 7.440325093703909 27.451169928962038 13.989720494198638
49 1 13.227244611029166 30.039159013173947 13.084112963311222
50 1 10.7471362464612 31.148297192121905 13.989720494198638
51 1 13.227244611029167 32.25743537106987 14.895328025086053
52 1 10.7471362464612 28.930020834225985 12.178505432423808
53 2 11.57383903465052 29.29973356054197 9.461682839761563
54 2 11.573839034650522 31.518009918437894 11.272897901536393
55 1 18.1874613401651 32.25743537106987 14.895328025086052
56 1 15.707352975597132 31.148297192121905 13.98972049419864
57 2 16.534055763786455 31.518009918437894 11.272897901536393
58 1 14.05394739921849 32.627148097385856 12.178505432423808
59 1 16.53405576378646 33.736286276333814 13.084112963311224
60 2 14.053947399218488 30.408871739489932 10.367290370648979
61 1 19.014164128354423 34.84542445528177 13.989720494198636
62 1 19.01416412835442 32.627148097385856 12.178505432423808
63 1 11.573839034650522 33.736286276333814 13.08411296331122
64 1 11.573839034650522 35.95456263422974 14.895328025086052
65 1 16.53405576378646 35.95456263422974 14.89532802508605
66 1 14.05394739921849 34.84542445528177 13.989720494198638
67 1 0.0 2.218276357895922 1.8112150617748295
68 2 2.4801083645679673 1.109138178947962 0.9056075308874146
69 2 4.960216729135936 0.0 -2.220446049250313e-16
70 2 0.0 0.0 0.0
71 1 8.881784197001252e-16 6.654829073687768 5.1836451853244885
72 1 2.4801083645679673 3.327414536843884 2.7168225926622442
73 1 2.4801083645679682 5.545690894739806 4.528037654437074
74 1 4.960216729135936 4.436552715791845 3.6224301235496585
75 1 8.881784197001252e-16 4.436552715791845 3.6224301235496585
76 1 1.6534055763786455 5.915403621055794 1.811215061774829
77 2 7.440325093703903 1.109138178947962 0.9056075308874144
78 1 7.440325093703903 3.327414536843884 2.7168225926622442
79 1 4.960216729135936 2.218276357895922 1.811215061774829
80 2 4.133513940946613 4.806265442107832 0.9056075308874144
81 2 6.61362230551458 3.697127263159871 -5.551115123125783e-16
82 2 1.6534055763786455 3.697127263159871 -3.885780586188048e-16
83 1 1.6534055763786455 10.351956336847639 5.1836451853244885
84 1 7.440325093703903 5.545690894739806 4.528037654437074
85 1 4.960216729135936 6.654829073687768 5.1836451853244885
86 1 4.133513940946613 7.024541800003755 2.716822592662244
87 1 4.133513940946613 9.242818157899677 4.528037654437074
88 1 6.61362230551458 8.133679978951715 3.6224301235496585
89 1 1.6534055763786455 8.133679978951717 3.6224301235496585
90 1 3.30681115275729 9.612530884215664 1.811215061774829
91 2 9.093730670082548 4.806265442107832 0.9056075308874142
92 1 9.093730670082547 7.024541800003755 2.716822592662244
93 1 6.61362230551458 5.915403621055793 1.811215061774829
94 2 5.7869195173252574 8.503392705267704 0.905607530887414
95 2 8.267027881893226 7.394254526319742 -9.43689570931383e-16
96 2 3.30681115275729 7.394254526319742 -7.771561172376096e-16
97 1 3.306811152757291 14.04908360000751 5.183645185324488
98 1 9.093730670082547 9.242818157899677 4.528037654437074
99 1 6.613622305514581 10.351956336847639 5.1836451853244885
100 1 5.786919517325258 10.721669063163626 2.7168225926622434
101 1 5.786919517325258 12.939945421059548 4.528037654437073
102 1 8.267027881893226 11.830807242111586 3.6224301235496585
103 1 3.306811152757291 11.830807242111588 3.6224301235496585
104 2 10.747136246461192 8.503392705267704 0.9056075308874137
105 1 10.747136246461192 10.721669063163626 2.7168225926622434
106 1 8.267027881893226 9.612530884215664 1.8112150617748286
107 1 14.880650187407813 39.374405352652616 15.550935555973467
108 1 10.747136246461192 12.939945421059548 4.528037654437073
109 1 8.267027881893226 14.04908360000751 5.183645185324488
110 1 14.880650187407813 43.810958068444464 18.923365679523123
111 1 17.360758551975778 40.48354353160058 16.20654308686088
112 1 17.36075855197578 42.701819889496505 18.01775814863571
113 1 19.840866916543746 41.59268171054855 17.112150617748295
114 1 14.880650187407813 41.59268171054855 17.112150617748295
115 1 16.53405576378646 43.07153261581249 15.550935555973464
116 1 22.320975281111714 40.48354353160058 16.20654308686088
117 1 19.840866916543746 39.374405352652616 15.550935555973464
118 2 17.36075855197578 44.92009624739242 19.82897321041054
119 1 16.53405576378646 47.508085331604335 18.923365679523123
120 1 22.320975281111714 42.701819889496505 18.017758148635707
121 2 22.320975281111714 44.92009624739242 19.82897321041054
122 1 19.84086691654375 43.810958068444464 18.923365679523126
123 1 19.014164128354423 44.180670794760445 16.20654308686088
124 1 19.014164128354427 46.398947152656376 18.01775814863571
125 1 21.49427249292239 45.28980897370842 17.112150617748295
126 1 16.53405576378646 45.28980897370842 17.112150617748295
127 1 18.187461340165104 46.76865987897236 15.550935555973464
128 1 23.97438085749036 44.180670794760445 16.20654308686088
129 1 21.49427249292239 43.07153261581249 15.550935555973464
130 2 19.014164128354427 48.61722351055229 19.82897321041054
131 1 18.187461340165104 51.205212594764205 18.923365679523123
132 1 23.97438085749036 46.398947152656376 18.017758148635707
133 2 23.97438085749036 48.61722351055229 19.82897321041054
134 1 21.494272492922395 47.508085331604335 18.923365679523126
135 1 20.66756970473307 47.877798057920316 16.20654308686088
136 1 20.667569704733072 50.09607441581625 18.01775814863571
137 1 23.147678069301037 48.98693623686829 17.112150617748295
138 1 18.187461340165104 48.98693623686829 17.112150617748295
139 1 25.627786433869005 47.877798057920316 16.20654308686088
140 1 23.147678069301037 46.76865987897236 15.550935555973464
141 2 20.667569704733072 52.314350773712164 19.82897321041054
142 1 25.627786433869005 50.09607441581625 18.017758148635707
143 2 25.627786433869005 52.314350773712164 19.82897321041054
144 1 23.147678069301037 51.205212594764205 18.923365679523126
