LAMMPS (29 Aug 2024 - Update 2)
#---------------------------------------------------------------------------------------------------
# Initilise important features of simulation
#---------------------------------------------------------------------------------------------------
units 		metal	# Use metals units (Ang, ps, eV, bar, etc.)
dimension 	3		# Run the simulation in three dimensions
boundary 	p p p	# Use periodic boundaries in all three dimensions
atom_style 	atomic	#
#box tilt large		# Allow larger than normal tilt factors

variable T_start equal 600
variable T_end equal 200
variable tstep equal 0.002
timestep ${tstep}
timestep 0.002

read_data   lammps.txt	# Read in atom coordinates from a file
Reading data file ...
  triclinic box = (0 0 0) to (9.9204335 11.091382 19.734581) with tilt (4.9602167 4.3401896 30.778584)
WARNING: Triclinic box skew is large. LAMMPS will run inefficiently. (src/domain.cpp:221)
  1 by 1 by 1 MPI processor grid
  reading atoms ...
  144 atoms
  read_data CPU = 0.001 seconds

#---------------------------------------------------------------------------------------------------
# Define how the forces between the atoms will be modelled
#---------------------------------------------------------------------------------------------------
pair_style eam/alloy
pair_coeff * * Zope-Ti-Al-2003.eam.alloy.txt Al Al

#---------------------------------------------------------------------------------------------------
# Set behaviour of simulation
#---------------------------------------------------------------------------------------------------
group g_fixed type 2
36 atoms in group g_fixed
group g_other type 1
108 atoms in group g_other
fix f_freeze g_fixed setforce 0.0 0.0 0.0 	# Hold atoms of type 2 fixed in place
#fix f_constrain g_other setforce 0.0 0.0 NULL 	# All atoms of type 1 to move only in z direction

#---------------------------------------------------------------------------------------------------
# Specify what information to write out
#---------------------------------------------------------------------------------------------------
thermo_style custom step atoms temp pe ke etotal fmax
thermo_modify format 6 %20.10f
thermo 1000

#compute statom all stress/atom NULL
compute peatom all pe/atom
dump 1 all custom 100000 dump.* id type x y z c_peatom
dump_modify 1 first yes


#---------------------------------------------------------------------------------------------------
# Initial relaxation
#---------------------------------------------------------------------------------------------------
velocity all set 0.0 0.0 0.0

min_style 	cg
min_modify dmax 0.1
minimize 	0.0 1.0e-6 10000 100000
Neighbor list info ...
  update: every = 1 steps, delay = 0 steps, check = yes
  max neighbors/atom: 2000, page size: 100000
  master list distance cutoff = 8.724884
  ghost atom cutoff = 8.724884
  binsize = 4.362442, bins = 5 10 5
  1 neighbor lists, perpetual/occasional/extra = 1 0 0
  (1) pair eam/alloy, perpetual
      attributes: half, newton on
      pair build: half/bin/atomonly/newton/tri
      stencil: half/bin/3d/tri
      bin: standard
Per MPI rank memory allocation (min/avg/max) = 4.71 | 4.71 | 4.71 Mbytes
   Step        Atoms         Temp          PotEng         KinEng         TotEng          Fmax     
         0         144   0             -360.6054       0                  -360.6054007952  14.577928    
        75         144   0             -460.43141      0                  -460.4314081274  1.2657193e-07
Loop time of 0.0155461 on 1 procs for 75 steps with 144 atoms

98.3% CPU use with 1 MPI tasks x no OpenMP threads

Minimization stats:
  Stopping criterion = force tolerance
  Energy initial, next-to-last, final = 
     -360.605400795237  -460.431408127402  -460.431408127403
  Force two-norm initial, final = 69.733499 8.8310592e-07
  Force max component initial, final = 14.577928 1.2657193e-07
  Final line search alpha, max atom move = 1 1.2657193e-07
  Iterations, force evaluations = 75 131

MPI task timing breakdown:
Section |  min time  |  avg time  |  max time  |%varavg| %total
---------------------------------------------------------------
Pair    | 0.013681   | 0.013681   | 0.013681   |   0.0 | 88.00
Neigh   | 0.00048292 | 0.00048292 | 0.00048292 |   0.0 |  3.11
Comm    | 0.00076125 | 0.00076125 | 0.00076125 |   0.0 |  4.90
Output  | 0          | 0          | 0          |   0.0 |  0.00
Modify  | 1.8918e-05 | 1.8918e-05 | 1.8918e-05 |   0.0 |  0.12
Other   |            | 0.0006024  |            |       |  3.88

Nlocal:            144 ave         144 max         144 min
Histogram: 1 0 0 0 0 0 0 0 0 0
Nghost:           3252 ave        3252 max        3252 min
Histogram: 1 0 0 0 0 0 0 0 0 0
Neighs:          13208 ave       13208 max       13208 min
Histogram: 1 0 0 0 0 0 0 0 0 0

Total # of neighbors = 13208
Ave neighs/atom = 91.722222
Neighbor list builds = 1
Dangerous builds = 0
#---------------------------------------------------------------------------------------------------
# Anneal boundary structures
#---------------------------------------------------------------------------------------------------
reset_timestep 100000
fix md g_other nvt temp ${T_start} ${T_end} $(100.0*v_tstep)
fix md g_other nvt temp 600 ${T_end} $(100.0*v_tstep)
fix md g_other nvt temp 600 200 $(100.0*v_tstep)
fix md g_other nvt temp 600 200 0.2000000000000000111

velocity all create ${T_start} 4928459 rot yes mom yes dist gaussian
velocity all create 600 4928459 rot yes mom yes dist gaussian
run 10000
Per MPI rank memory allocation (min/avg/max) = 4.967 | 4.967 | 4.967 Mbytes
   Step        Atoms         Temp          PotEng         KinEng         TotEng          Fmax     
    100000         144   600           -460.43141      11.09052           -449.3408876864  1.2657194e-07
    101000         144   585.43215     -452.38233      10.821245          -441.5610885375  1.3284371    
    102000         144   599.04622     -452.76202      11.072891          -441.6891257120  1.5471758    
    103000         144   541.73546     -454.49349      10.013547          -444.4799382580  1.4671194    
    104000         144   539.99557     -455.42729      9.9813865          -445.4458998325  1.2217869    
    105000         144   516.86416     -456.328        9.553821           -446.7741838524  1.5531134    
    106000         144   461.15235     -457.33464      8.5240327          -448.8106031530  1.108296     
    107000         144   420.90741     -457.93487      7.780137           -450.1547286573  1.1914714    
    108000         144   381.25052     -458.16876      7.0471112          -451.1216462506  1.1918553    
    109000         144   357.96953     -458.61847      6.6167807          -452.0016922008  0.92416699   
    110000         144   328.86603     -459.17236      6.0788258          -453.0935302572  0.99013347   
Loop time of 1.04164 on 1 procs for 10000 steps with 144 atoms

Performance: 1658.930 ns/day, 0.014 hours/ns, 9600.290 timesteps/s, 1.382 Matom-step/s
99.6% CPU use with 1 MPI tasks x no OpenMP threads

MPI task timing breakdown:
Section |  min time  |  avg time  |  max time  |%varavg| %total
---------------------------------------------------------------
Pair    | 0.94072    | 0.94072    | 0.94072    |   0.0 | 90.31
Neigh   | 0.019569   | 0.019569   | 0.019569   |   0.0 |  1.88
Comm    | 0.057843   | 0.057843   | 0.057843   |   0.0 |  5.55
Output  | 7.1666e-05 | 7.1666e-05 | 7.1666e-05 |   0.0 |  0.01
Modify  | 0.010792   | 0.010792   | 0.010792   |   0.0 |  1.04
Other   |            | 0.01264    |            |       |  1.21

Nlocal:            144 ave         144 max         144 min
Histogram: 1 0 0 0 0 0 0 0 0 0
Nghost:           3264 ave        3264 max        3264 min
Histogram: 1 0 0 0 0 0 0 0 0 0
Neighs:          13187 ave       13187 max       13187 min
Histogram: 1 0 0 0 0 0 0 0 0 0

Total # of neighbors = 13187
Ave neighs/atom = 91.576389
Neighbor list builds = 36
Dangerous builds = 0
unfix md

#---------------------------------------------------------------------------------------------------
# Final relaxation
#---------------------------------------------------------------------------------------------------
velocity all set 0.0 0.0 0.0

min_style 	cg
min_modify dmax 0.1
minimize 	0.0 1.0e-6 10000 100000
Per MPI rank memory allocation (min/avg/max) = 6.092 | 6.092 | 6.092 Mbytes
   Step        Atoms         Temp          PotEng         KinEng         TotEng          Fmax     
    110000         144   0             -459.17236      0                  -459.1723560540  0.99013347   
    110054         144   0             -461.98982      0                  -461.9898191044  2.0326756e-07
Loop time of 0.0120969 on 1 procs for 54 steps with 144 atoms

97.6% CPU use with 1 MPI tasks x no OpenMP threads

Minimization stats:
  Stopping criterion = force tolerance
  Energy initial, next-to-last, final = 
     -459.172356053957  -461.989819104389  -461.989819104389
  Force two-norm initial, final = 5.4176638 8.1397574e-07
  Force max component initial, final = 0.99013347 2.0326756e-07
  Final line search alpha, max atom move = 1 2.0326756e-07
  Iterations, force evaluations = 54 107

MPI task timing breakdown:
Section |  min time  |  avg time  |  max time  |%varavg| %total
---------------------------------------------------------------
Pair    | 0.010834   | 0.010834   | 0.010834   |   0.0 | 89.56
Neigh   | 0          | 0          | 0          |   0.0 |  0.00
Comm    | 0.00061775 | 0.00061775 | 0.00061775 |   0.0 |  5.11
Output  | 0          | 0          | 0          |   0.0 |  0.00
Modify  | 1.5415e-05 | 1.5415e-05 | 1.5415e-05 |   0.0 |  0.13
Other   |            | 0.0006302  |            |       |  5.21

Nlocal:            144 ave         144 max         144 min
Histogram: 1 0 0 0 0 0 0 0 0 0
Nghost:           3272 ave        3272 max        3272 min
Histogram: 1 0 0 0 0 0 0 0 0 0
Neighs:          13163 ave       13163 max       13163 min
Histogram: 1 0 0 0 0 0 0 0 0 0

Total # of neighbors = 13163
Ave neighs/atom = 91.409722
Neighbor list builds = 0
Dangerous builds = 0

Total wall time: 0:00:01
