ITEM: TIMESTEP
110051
ITEM: NUMBER OF ATOMS
144
ITEM: BOX BOUNDS xy xz yz pp pp pp
0.0000000000000000e+00 2.5421110736821674e+01 4.9602167291359365e+00
0.0000000000000000e+00 4.1869966255285533e+01 1.0540460549413869e+01
0.0000000000000000e+00 2.5734580741297954e+01 3.0778584465805924e+01
ITEM: ATOMS id type x y z c_peatom
68 2 2.48011 1.10914 0.905608 -3.39543
69 2 4.96022 0 0 -3.3672
70 2 0 0 0 -3.39444
82 2 1.65341 3.69713 0 -3.28683
77 2 7.44033 1.10914 0.905608 -3.39845
81 2 6.61362 3.69713 0 -3.40931
67 1 9.92126 2.21679 1.84528 -3.29742
74 1 4.94733 4.42706 3.69886 -3.30065
80 2 4.13351 4.80627 0.905608 -3.41137
86 1 4.15912 7.01341 2.74456 -3.38843
87 1 4.20918 9.20178 4.60719 -3.40387
75 1 2.51998 5.55476 4.54743 -3.11661
88 1 6.63617 8.13794 3.65971 -3.17883
91 2 9.09373 4.80627 0.905608 -3.27246
92 1 9.1152 7.04846 2.71309 -3.04905
93 1 6.60712 5.91394 1.81325 -3.29873
94 2 5.78692 8.50339 0.905608 -3.37415
95 2 8.26703 7.39425 0 -3.39022
76 1 11.586 5.92596 1.82351 -3.2956
89 1 11.6242 8.15718 3.70862 -3.29675
96 2 13.2272 7.39425 0 -3.40492
104 2 10.7471 8.50339 0.905608 -3.40964
79 1 9.90602 13.3174 1.8542 -3.4041
98 1 9.15811 9.28651 4.60913 -3.18012
100 1 5.81151 10.6915 2.75231 -3.41207
102 1 8.29394 11.7966 3.64249 -3.43126
106 1 8.28365 9.60952 1.82687 -3.40002
101 1 5.79838 12.8377 4.55752 -3.07657
90 1 13.2312 9.59899 1.86597 -3.37133
103 1 13.2318 11.7805 3.65834 -3.26265
105 1 10.7563 10.7243 2.76535 -3.40363
108 1 10.7296 12.9487 4.60238 -3.13013
72 1 7.42702 14.4306 2.71319 -3.29868
78 1 12.3764 14.4164 2.74252 -3.05685
44 1 5.19661 8.74678 7.32708 -3.30881
22 1 10.1528 8.78564 7.3408 -3.01277
1 1 6.72382 10.3526 5.53169 -3.34354
15 1 9.18653 11.533 6.4463 -3.2276
5 1 6.79299 12.6945 7.43907 -3.12585
9 1 5.23286 10.9431 9.18259 -3.27818
4 1 10.2107 11.0404 9.11286 -3.22891
83 1 11.6732 10.3453 5.54589 -3.26016
2 1 14.1936 11.3501 6.44288 -3.03562
99 1 12.6676 9.81418 8.27298 -3.31343
20 1 12.7003 12.0624 10.1266 -3.0496
84 1 9.98446 17.6417 5.51822 -3.11724
109 1 8.14389 13.9777 5.3266 -3.18451
14 1 10.0328 15.0522 6.80107 -2.7787
35 1 8.61076 14.5328 9.23378 -3.21246
17 1 6.14898 15.749 10.1044 -3.07443
85 1 9.39945 17.3037 8.36421 -3.29353
97 1 7.30101 15.9454 7.2796 -2.94959
16 1 11.0341 15.7456 10.1278 -3.11011
21 1 11.8537 18.3882 9.25237 -3.05551
73 1 16.8305 18.3199 9.187 -3.28694
71 1 7.63655 18.7413 6.45221 -3.303
36 1 9.36319 19.4731 10.1334 -3.40359
3 1 12.6257 21.0014 8.22834 -3.26481
6 1 12.6912 23.124 10.1072 -3.29278
41 1 14.3644 19.5188 10.114 -3.29527
7 1 5.27575 13.1743 11.0213 -3.21855
23 2 7.75034 16.4984 13.7729 -3.30307
34 1 8.5847 16.85 11.0411 -3.43172
12 2 12.7106 16.4984 13.7729 -3.32382
18 1 13.5457 16.8839 11.0751 -3.19147
31 2 11.0571 17.9773 11.9617 -3.41518
19 2 16.0174 17.9773 11.9617 -3.37337
32 2 8.57704 19.0864 12.8673 -3.37186
52 1 8.59781 21.2681 14.6994 -3.39979
53 2 9.40374 21.6744 11.9617 -3.38919
33 2 11.0571 20.1956 13.7729 -3.37214
38 1 13.5428 21.2902 14.7161 -3.36529
40 2 13.5373 19.0864 12.8673 -3.38596
42 1 11.8648 20.572 11.0301 -3.40054
43 2 14.364 21.6744 11.9617 -3.38301
60 2 11.8839 22.7835 12.8673 -3.37995
37 2 16.0174 20.1956 13.7729 -3.38301
45 2 16.8441 22.7835 12.8673 -3.41272
46 1 16.8275 20.5767 11.0187 -3.39935
54 2 9.40374 23.8927 13.7729 -3.43049
8 2 12.7106 25.3715 11.9617 -3.39335
11 2 15.1907 26.4807 12.8673 -3.40577
26 2 10.2304 26.4807 12.8673 -3.38249
57 2 14.364 23.8927 13.7729 -3.39397
58 1 11.8645 25.0229 14.7086 -3.3481
13 1 15.1837 24.2464 11.0652 -3.26899
10 2 17.6708 25.3715 11.9617 -3.31511
62 1 16.8561 25.0066 14.6687 -3.22209
30 1 15.2128 28.703 14.7079 -3.29295
24 1 20.183 28.7039 14.7285 -3.26848
107 1 10.3402 22.0205 18.3791 -3.29937
49 1 11.0927 22.4154 15.6202 -3.39839
29 1 12.7691 20.8826 17.464 -3.31378
117 1 12.8018 23.1359 19.2356 -3.08238
48 1 15.2483 19.7553 16.5811 -3.2726
39 1 16.0323 22.3832 15.6027 -3.161
50 1 8.67522 23.4825 16.477 -3.01286
138 1 9.67255 26.6918 19.3364 -3.01197
51 1 11.083 24.7737 17.4924 -3.24954
56 1 13.5114 23.5892 16.5181 -3.10508
59 1 14.3815 26.1764 15.5958 -3.10864
55 1 13.3721 26.2503 18.2806 -2.92912
111 1 10.4481 24.1395 20.2568 -3.12223
115 1 12.0863 27.8507 20.2467 -3.32061
63 1 19.3424 26.1979 15.6788 -3.109
114 1 17.0748 27.9516 20.2439 -2.88518
47 1 12.817 31.9179 17.4801 -3.11199
25 1 12.7604 29.7341 15.68 -3.32184
66 1 11.2349 27.9859 17.4185 -3.24798
127 1 13.758 31.4849 20.2168 -3.18987
61 1 13.6888 29.2235 18.3934 -3.3355
28 1 15.2619 30.8617 16.5863 -3.38436
116 1 16.066 28.1404 17.4314 -2.98392
27 1 17.7016 29.7402 15.6544 -3.3115
64 1 18.663 29.2612 18.3465 -3.28991
129 1 16.1787 30.4363 19.2876 -3.41815
140 1 18.6648 31.4993 20.1549 -3.1654
65 1 21.1517 30.3311 19.2837 -3.17736
113 1 14.5877 28.9289 21.1338 -3.25762
124 1 14.6452 31.1221 22.9731 -3.40016
126 1 12.1212 30.065 22.062 -3.32062
119 1 12.1695 32.2642 23.9076 -3.19901
128 1 19.5643 28.948 21.1455 -3.38696
125 1 17.1008 30.0859 22.058 -3.39154
132 1 19.5864 31.1512 22.9585 -3.27683
134 1 17.1049 32.2686 23.8914 -3.38479
139 1 13.8894 33.6976 22.1354 -2.91491
130 2 14.674 33.3666 24.829 -3.38217
131 1 13.8557 35.9694 23.9128 -3.18532
135 1 16.2392 32.6189 21.1189 -3.42108
142 1 17.8509 36.3704 21.0808 -3.07094
133 2 19.6342 33.3666 24.829 -3.28796
136 1 16.2962 34.8609 22.9877 -3.42416
137 1 18.6503 33.7095 22.0501 -2.99446
141 2 16.3274 37.0637 24.829 -3.40444
144 1 18.7719 35.9579 23.8971 -3.17124
143 2 21.2876 37.0637 24.829 -3.16733
112 1 15.4552 37.4379 22.0488 -3.33008
123 1 17.9358 38.5494 22.9547 -3.29934
110 1 15.4886 39.6396 23.878 -3.40119
118 2 17.9808 40.7608 24.829 -3.39404
120 1 22.9299 38.5639 22.9697 -3.17697
122 1 20.4416 39.6389 23.876 -3.30758
121 2 22.941 40.7608 24.829 -3.38737
