LAMMPS (29 Aug 2024 - Update 2)
#---------------------------------------------------------------------------------------------------
# Initilise important features of simulation
#---------------------------------------------------------------------------------------------------
units 		metal	# Use metals units (Ang, ps, eV, bar, etc.)
dimension 	3		# Run the simulation in three dimensions
boundary 	p p p	# Use periodic boundaries in all three dimensions
atom_style 	atomic	#
#box tilt large		# Allow larger than normal tilt factors

variable T_start equal 600
variable T_end equal 200
variable tstep equal 0.002
timestep ${tstep}
timestep 0.002

read_data   lammps.txt	# Read in atom coordinates from a file
Reading data file ...
  triclinic box = (0 0 0) to (9.9204335 11.091382 24.734581) with tilt (4.9602167 14.260623 30.778584)
WARNING: Triclinic box skew is large. LAMMPS will run inefficiently. (src/domain.cpp:221)
  1 by 1 by 1 MPI processor grid
  reading atoms ...
  144 atoms
  read_data CPU = 0.001 seconds

#---------------------------------------------------------------------------------------------------
# Define how the forces between the atoms will be modelled
#---------------------------------------------------------------------------------------------------
pair_style eam/alloy
pair_coeff * * Zope-Ti-Al-2003.eam.alloy.txt Al Al

#---------------------------------------------------------------------------------------------------
# Set behaviour of simulation
#---------------------------------------------------------------------------------------------------
group g_fixed type 2
36 atoms in group g_fixed
group g_other type 1
108 atoms in group g_other
fix f_freeze g_fixed setforce 0.0 0.0 0.0 	# Hold atoms of type 2 fixed in place
#fix f_constrain g_other setforce 0.0 0.0 NULL 	# All atoms of type 1 to move only in z direction

#---------------------------------------------------------------------------------------------------
# Specify what information to write out
#---------------------------------------------------------------------------------------------------
thermo_style custom step atoms temp pe ke etotal fmax
thermo_modify format 6 %20.10f
thermo 1000

#compute statom all stress/atom NULL
compute peatom all pe/atom
dump 1 all custom 100000 dump.* id type x y z c_peatom
dump_modify 1 first yes


#---------------------------------------------------------------------------------------------------
# Initial relaxation
#---------------------------------------------------------------------------------------------------
velocity all set 0.0 0.0 0.0

min_style 	cg
min_modify dmax 0.1
minimize 	0.0 1.0e-6 10000 100000
Neighbor list info ...
  update: every = 1 steps, delay = 0 steps, check = yes
  max neighbors/atom: 2000, page size: 100000
  master list distance cutoff = 8.724884
  ghost atom cutoff = 8.724884
  binsize = 4.362442, bins = 7 10 6
  1 neighbor lists, perpetual/occasional/extra = 1 0 0
  (1) pair eam/alloy, perpetual
      attributes: half, newton on
      pair build: half/bin/atomonly/newton/tri
      stencil: half/bin/3d/tri
      bin: standard
Per MPI rank memory allocation (min/avg/max) = 4.644 | 4.644 | 4.644 Mbytes
   Step        Atoms         Temp          PotEng         KinEng         TotEng          Fmax     
         0         144   0             -455.71825      0                  -455.7182545607  3.9739753    
        98         144   0             -470.39293      0                  -470.3929251032  1.1537406e-07
Loop time of 0.0155996 on 1 procs for 98 steps with 144 atoms

99.5% CPU use with 1 MPI tasks x no OpenMP threads

Minimization stats:
  Stopping criterion = force tolerance
  Energy initial, next-to-last, final = 
     -455.718254560718  -470.392925103231   -470.39292510323
  Force two-norm initial, final = 12.91241 7.6704617e-07
  Force max component initial, final = 3.9739753 1.1537406e-07
  Final line search alpha, max atom move = 1 1.1537406e-07
  Iterations, force evaluations = 98 172

MPI task timing breakdown:
Section |  min time  |  avg time  |  max time  |%varavg| %total
---------------------------------------------------------------
Pair    | 0.01302    | 0.01302    | 0.01302    |   0.0 | 83.46
Neigh   | 0.0013091  | 0.0013091  | 0.0013091  |   0.0 |  8.39
Comm    | 0.00069401 | 0.00069401 | 0.00069401 |   0.0 |  4.45
Output  | 0          | 0          | 0          |   0.0 |  0.00
Modify  | 2.6574e-05 | 2.6574e-05 | 2.6574e-05 |   0.0 |  0.17
Other   |            | 0.0005503  |            |       |  3.53

Nlocal:            144 ave         144 max         144 min
Histogram: 1 0 0 0 0 0 0 0 0 0
Nghost:           2194 ave        2194 max        2194 min
Histogram: 1 0 0 0 0 0 0 0 0 0
Neighs:          10674 ave       10674 max       10674 min
Histogram: 1 0 0 0 0 0 0 0 0 0

Total # of neighbors = 10674
Ave neighs/atom = 74.125
Neighbor list builds = 3
Dangerous builds = 0
#---------------------------------------------------------------------------------------------------
# Anneal boundary structures
#---------------------------------------------------------------------------------------------------
reset_timestep 100000
fix md g_other nvt temp ${T_start} ${T_end} $(100.0*v_tstep)
fix md g_other nvt temp 600 ${T_end} $(100.0*v_tstep)
fix md g_other nvt temp 600 200 $(100.0*v_tstep)
fix md g_other nvt temp 600 200 0.2000000000000000111

velocity all create ${T_start} 4928459 rot yes mom yes dist gaussian
velocity all create 600 4928459 rot yes mom yes dist gaussian
run 10000
Per MPI rank memory allocation (min/avg/max) = 4.901 | 4.901 | 4.901 Mbytes
   Step        Atoms         Temp          PotEng         KinEng         TotEng          Fmax     
    100000         144   600           -470.39293      11.09052           -459.3024046622  1.1537407e-07
    101000         144   547.99617     -461.79188      10.129271          -451.6626046953  1.4531826    
    102000         144   601.44139     -461.26564      11.117163          -450.1484756923  1.2762247    
    103000         144   511.25486     -462.76685      9.4501374          -453.3167170100  1.2067269    
    104000         144   543.30879     -464.61044      10.042629          -454.5678131441  1.1279548    
    105000         144   490.71239     -464.59718      9.0704263          -455.5267546731  1.004887     
    106000         144   449.06679     -465.66868      8.3006407          -457.3680385233  1.0053131    
    107000         144   421.95342     -466.46641      7.7994717          -458.6669334257  0.9386222    
    108000         144   399.34396     -467.30292      7.381554           -459.9213622583  0.72198403   
    109000         144   381.43956     -467.44125      7.0506054          -460.3906464679  0.87503733   
    110000         144   336.29506     -468.11552      6.2161454          -461.8993790806  0.72352399   
Loop time of 0.826139 on 1 procs for 10000 steps with 144 atoms

Performance: 2091.657 ns/day, 0.011 hours/ns, 12104.499 timesteps/s, 1.743 Matom-step/s
99.8% CPU use with 1 MPI tasks x no OpenMP threads

MPI task timing breakdown:
Section |  min time  |  avg time  |  max time  |%varavg| %total
---------------------------------------------------------------
Pair    | 0.71118    | 0.71118    | 0.71118    |   0.0 | 86.08
Neigh   | 0.053569   | 0.053569   | 0.053569   |   0.0 |  6.48
Comm    | 0.04008    | 0.04008    | 0.04008    |   0.0 |  4.85
Output  | 4.7417e-05 | 4.7417e-05 | 4.7417e-05 |   0.0 |  0.01
Modify  | 0.010869   | 0.010869   | 0.010869   |   0.0 |  1.32
Other   |            | 0.01039    |            |       |  1.26

Nlocal:            144 ave         144 max         144 min
Histogram: 1 0 0 0 0 0 0 0 0 0
Nghost:           2249 ave        2249 max        2249 min
Histogram: 1 0 0 0 0 0 0 0 0 0
Neighs:          10606 ave       10606 max       10606 min
Histogram: 1 0 0 0 0 0 0 0 0 0

Total # of neighbors = 10606
Ave neighs/atom = 73.652778
Neighbor list builds = 117
Dangerous builds = 0
unfix md

#---------------------------------------------------------------------------------------------------
# Final relaxation
#---------------------------------------------------------------------------------------------------
velocity all set 0.0 0.0 0.0

min_style 	cg
min_modify dmax 0.1
minimize 	0.0 1.0e-6 10000 100000
Per MPI rank memory allocation (min/avg/max) = 6.026 | 6.026 | 6.026 Mbytes
   Step        Atoms         Temp          PotEng         KinEng         TotEng          Fmax     
    110000         144   0             -468.11552      0                  -468.1155245057  0.72352399   
    110062         144   0             -471.10944      0                  -471.1094421309  1.6881381e-07
Loop time of 0.0103365 on 1 procs for 62 steps with 144 atoms

98.1% CPU use with 1 MPI tasks x no OpenMP threads

Minimization stats:
  Stopping criterion = force tolerance
  Energy initial, next-to-last, final = 
      -468.11552450574  -471.109442130937   -471.10944213094
  Force two-norm initial, final = 4.4925557 9.6845281e-07
  Force max component initial, final = 0.72352399 1.6881381e-07
  Final line search alpha, max atom move = 1 1.6881381e-07
  Iterations, force evaluations = 62 122

MPI task timing breakdown:
Section |  min time  |  avg time  |  max time  |%varavg| %total
---------------------------------------------------------------
Pair    | 0.0092831  | 0.0092831  | 0.0092831  |   0.0 | 89.81
Neigh   | 0          | 0          | 0          |   0.0 |  0.00
Comm    | 0.00048542 | 0.00048542 | 0.00048542 |   0.0 |  4.70
Output  | 0          | 0          | 0          |   0.0 |  0.00
Modify  | 2.0748e-05 | 2.0748e-05 | 2.0748e-05 |   0.0 |  0.20
Other   |            | 0.0005472  |            |       |  5.29

Nlocal:            144 ave         144 max         144 min
Histogram: 1 0 0 0 0 0 0 0 0 0
Nghost:           2238 ave        2238 max        2238 min
Histogram: 1 0 0 0 0 0 0 0 0 0
Neighs:          10631 ave       10631 max       10631 min
Histogram: 1 0 0 0 0 0 0 0 0 0

Total # of neighbors = 10631
Ave neighs/atom = 73.826389
Neighbor list builds = 0
Dangerous builds = 0

Total wall time: 0:00:00
