ITEM: TIMESTEP
118
ITEM: NUMBER OF ATOMS
144
ITEM: BOX BOUNDS xy xz yz pp pp pp
0.0000000000000000e+00 4.2161842197655460e+01 4.9602167291359365e+00
0.0000000000000000e+00 5.7120616215819993e+01 2.7281192010247651e+01
0.0000000000000000e+00 2.4734580741297954e+01 4.6029234426340381e+01
ITEM: ATOMS id type x y z c_peatom
70 2 0 0 0 -3.34825
82 2 1.65341 3.69713 0 -3.36282
69 2 4.96022 0 0 -3.34825
81 2 6.61362 3.69713 0 -3.36282
80 2 4.13351 4.80627 0.905608 -3.33307
86 1 4.21248 7.00717 2.79315 -3.26162
88 1 6.76471 8.03163 3.86757 -3.27063
91 2 9.09373 4.80627 0.905608 -3.33307
92 1 9.1727 7.00717 2.79315 -3.26162
93 1 6.64721 5.89914 1.90156 -3.30862
94 2 5.78692 8.50339 0.905608 -3.34808
95 2 8.26703 7.39425 0 -3.36282
76 1 11.6074 5.89914 1.90156 -3.30862
89 1 11.7249 8.03163 3.86757 -3.27063
96 2 13.2272 7.39425 0 -3.36282
104 2 10.7471 8.50339 0.905608 -3.34808
68 2 7.44033 12.2005 0.905608 -3.34126
98 1 9.33428 9.24945 4.74228 -3.26601
100 1 5.88389 10.6915 2.87955 -3.3346
102 1 8.3839 11.845 3.76778 -3.29426
106 1 8.30494 9.59285 1.92241 -3.37595
77 2 12.4005 12.2005 0.905608 -3.34126
87 1 14.2945 9.24945 4.74228 -3.26601
90 1 13.2652 9.59285 1.92241 -3.37595
103 1 13.3441 11.845 3.76778 -3.29426
105 1 10.8441 10.6915 2.87955 -3.3346
108 1 10.9266 12.9168 4.84366 -3.26411
101 1 15.8868 12.9168 4.84366 -3.26411
72 1 7.5413 14.454 2.86805 -3.29431
74 1 10.0515 15.6106 4.00399 -3.20738
78 1 12.5015 14.454 2.86805 -3.29431
79 1 9.99197 13.3465 1.96626 -3.35573
84 1 12.5036 15.2674 5.71815 -3.07281
67 1 14.9522 13.3465 1.96626 -3.35573
73 1 17.4638 15.2674 5.71815 -3.07281
75 1 15.0117 15.6106 4.00399 -3.20738
109 1 8.62173 12.7432 6.59238 -3.19417
2 1 11.1637 18.7668 6.76688 -3.18063
97 1 13.5819 12.7432 6.59238 -3.19417
1 1 16.1239 18.7668 6.76688 -3.18063
9 1 13.5738 18.5967 8.52458 -3.25685
85 1 18.6424 17.7584 5.61027 -3.06322
99 1 11.8907 21.4533 5.81158 -3.27613
3 1 18.534 18.5967 8.52458 -3.25685
5 1 14.4657 21.1597 7.55045 -3.28515
6 1 16.068 19.6682 9.58727 -3.30444
71 1 13.6822 17.7584 5.61027 -3.06322
83 1 16.851 21.4533 5.81158 -3.27613
4 1 21.0283 19.6682 9.58727 -3.30444
14 1 19.4259 21.1597 7.55045 -3.28515
15 1 16.9461 22.2574 8.62253 -3.28912
17 1 14.4579 23.4191 9.51615 -3.28177
22 1 10.1297 16.2459 7.58109 -3.04858
35 1 16.1448 24.8364 7.73487 -3.04443
16 1 19.4181 23.4191 9.51615 -3.28177
20 1 21.9063 22.2574 8.62253 -3.28912
21 1 21.105 24.8364 7.73487 -3.04443
44 1 15.0899 16.2459 7.58109 -3.04858
36 1 17.6918 27.0012 9.36172 -3.19737
41 1 22.652 27.0012 9.36172 -3.19737
7 1 13.6224 20.8137 10.4689 -3.3514
8 2 16.1207 21.9055 11.4617 -3.38797
13 1 18.5827 20.8137 10.4689 -3.3514
10 2 21.0809 21.9055 11.4617 -3.38797
34 1 16.9456 24.4956 10.5063 -3.26661
18 1 21.9058 24.4956 10.5063 -3.26661
31 2 19.4275 25.6026 11.4617 -3.30753
19 2 24.3877 25.6026 11.4617 -3.30753
32 2 16.9474 26.7117 12.3673 -3.34207
52 1 16.9816 28.9653 14.2808 -3.30704
53 2 17.7741 29.2997 11.4617 -3.35731
33 2 19.4275 27.8209 13.2729 -3.35731
38 1 21.9418 28.9653 14.2808 -3.30704
40 2 21.9076 26.7117 12.3673 -3.34207
42 1 20.2201 28.1553 10.4538 -3.30704
43 2 22.7343 29.2997 11.4617 -3.35731
60 2 20.2542 30.4089 12.3673 -3.34207
37 2 24.3877 27.8209 13.2729 -3.35731
45 2 25.2144 30.4089 12.3673 -3.34207
46 1 25.1803 28.1553 10.4538 -3.30704
54 2 17.7741 31.518 13.2729 -3.30753
57 2 22.7343 31.518 13.2729 -3.30753
58 1 20.2561 32.625 14.2283 -3.26661
11 2 18.6008 23.0146 12.3673 -3.36976
62 1 25.2163 32.625 14.2283 -3.26661
26 2 23.561 23.0146 12.3673 -3.36976
23 2 21.0809 35.2151 13.2729 -3.38797
12 2 26.0411 35.2151 13.2729 -3.38797
30 1 23.5792 36.307 14.2657 -3.3514
24 1 28.5394 36.307 14.2657 -3.3514
49 1 19.5098 30.1194 15.3729 -3.19737
39 1 24.47 30.1194 15.3729 -3.19737
51 1 21.0568 32.2842 16.9997 -3.04443
56 1 27.0719 40.8747 17.1535 -3.04858
59 1 22.7437 33.7015 15.2184 -3.28177
66 1 20.2555 34.8633 16.1121 -3.28912
50 1 32.0321 40.8747 17.1535 -3.04858
55 1 26.017 32.2842 16.9997 -3.04443
61 1 25.2158 34.8633 16.1121 -3.28912
63 1 27.704 33.7015 15.2184 -3.28177
25 1 21.1336 37.4524 15.1473 -3.30444
65 1 22.7359 35.9609 17.1841 -3.28515
27 1 26.0938 37.4524 15.1473 -3.30444
28 1 23.6278 38.5239 16.21 -3.25685
64 1 27.6961 35.9609 17.1841 -3.28515
107 1 28.4796 39.3622 19.1243 -3.06322
127 1 25.3109 35.6673 18.923 -3.27613
48 1 28.5881 38.5239 16.21 -3.25685
117 1 23.5194 39.3622 19.1243 -3.06322
140 1 30.2711 35.6673 18.923 -3.27613
29 1 26.0379 38.3538 17.9677 -3.18063
47 1 30.9981 38.3538 17.9677 -3.18063
115 1 28.5799 44.3774 18.1422 -3.19417
129 1 33.5401 44.3774 18.1422 -3.19417
110 1 27.2097 43.7741 22.7683 -3.35573
114 1 27.1502 41.5101 20.7306 -3.20738
116 1 24.6981 41.8532 19.0164 -3.07281
111 1 29.6583 41.8532 19.0164 -3.07281
112 1 29.6603 42.6666 21.8665 -3.29431
113 1 32.1104 41.5101 20.7306 -3.20738
122 1 32.1699 43.7741 22.7683 -3.35573
120 1 34.6205 42.6666 21.8665 -3.29431
128 1 26.275 44.2038 19.8909 -3.26411
118 2 29.7613 44.9201 23.829 -3.34126
119 1 28.8967 47.5278 22.8122 -3.37595
123 1 31.2353 44.2038 19.8909 -3.26411
124 1 31.3177 46.4291 21.855 -3.3346
126 1 28.8177 45.2756 20.9668 -3.29426
139 1 27.8673 47.8712 19.9923 -3.26601
121 2 34.7215 44.9201 23.829 -3.34126
125 1 33.7779 45.2756 20.9668 -3.29426
132 1 36.278 46.4291 21.855 -3.3346
134 1 33.8569 47.5278 22.8122 -3.37595
135 1 32.8276 47.8712 19.9923 -3.26601
130 2 31.4147 48.6172 23.829 -3.34808
131 1 30.5544 51.2215 22.833 -3.30862
138 1 30.4369 49.089 20.867 -3.27063
133 2 36.3749 48.6172 23.829 -3.34808
136 1 32.9891 50.1134 21.9414 -3.26162
137 1 35.3971 49.089 20.867 -3.27063
141 2 33.0681 52.3144 23.829 -3.33307
144 1 35.5146 51.2215 22.833 -3.30862
142 1 37.9494 50.1134 21.9414 -3.26162
143 2 38.0283 52.3144 23.829 -3.33307
