ITEM: TIMESTEP
0
ITEM: NUMBER OF ATOMS
144
ITEM: BOX BOUNDS xy xz yz pp pp pp
0.0000000000000000e+00 3.3481462921667571e+01 4.9602167291359365e+00
0.0000000000000000e+00 5.7120616215819993e+01 1.8600812734259765e+01
0.0000000000000000e+00 2.3734580741297954e+01 4.6029234426340388e+01
ITEM: ATOMS id type x y z c_peatom
70 2 0 0 0 -3.3739
82 2 1.65341 3.69713 0 -3.3739
69 2 4.96022 4.30618e-16 0 -3.3739
81 2 6.61362 3.69713 0 -3.3739
80 2 4.13351 4.80627 0.905608 -3.36818
86 1 4.13351 7.02454 2.71682 -3.32761
88 1 6.61362 8.13368 3.62243 -3.28537
91 2 9.09373 4.80627 0.905608 -3.36818
92 1 9.09373 7.02454 2.71682 -3.32761
93 1 6.61362 5.9154 1.81122 -3.38043
94 2 5.78692 8.50339 0.905608 -3.36818
95 2 8.26703 7.39425 0 -3.3739
76 1 11.5738 5.9154 1.81122 -3.38043
89 1 11.5738 8.13368 3.62243 -3.28537
96 2 13.2272 7.39425 0 -3.3739
104 2 10.7471 8.50339 0.905608 -3.36818
87 1 4.13351 9.24282 4.52804 -3.15049
68 2 7.44033 12.2005 0.905608 -3.36818
98 1 9.09373 9.24282 4.52804 -3.15049
100 1 5.78692 10.7217 2.71682 -3.35961
101 1 5.78692 12.9399 4.52804 -3.16933
102 1 8.26703 11.8308 3.62243 -3.31146
106 1 8.26703 9.61253 1.81122 -3.38569
77 2 12.4005 12.2005 0.905608 -3.36818
90 1 13.2272 9.61253 1.81122 -3.38569
103 1 13.2272 11.8308 3.62243 -3.31146
105 1 10.7471 10.7217 2.71682 -3.35961
108 1 10.7471 12.9399 4.52804 -3.16933
72 1 7.44033 14.4188 2.71682 -3.34814
73 1 7.44033 16.6371 4.52804 -3.16609
74 1 9.92043 15.5279 3.62243 -3.28006
78 1 12.4005 14.4188 2.71682 -3.34814
79 1 9.92043 13.3097 1.81122 -3.38369
84 1 12.4005 16.6371 4.52804 -3.16609
67 1 14.8807 13.3097 1.81122 -3.38369
75 1 14.8807 15.5279 3.62243 -3.28006
109 1 8.26703 14.0491 5.93365 -1.26965
1 1 11.7805 17.4689 7.33925 -2.91885
97 1 13.2272 14.0491 5.93365 -1.26965
2 1 16.7407 17.4689 7.33925 -2.91885
9 1 9.30041 18.5781 8.24486 -3.15008
3 1 14.2606 18.5781 8.24486 -3.15008
5 1 10.1271 21.1661 7.33925 -2.64266
6 1 11.7805 19.6872 9.15047 -3.35079
85 1 9.92043 17.7462 5.93365 -2.7757
99 1 11.5738 21.4433 5.93365 -2.53101
4 1 16.7407 19.6872 9.15047 -3.35079
14 1 15.0873 21.1661 7.33925 -2.64266
71 1 14.8807 17.7462 5.93365 -2.7757
83 1 16.5341 21.4433 5.93365 -2.53101
15 1 12.6072 22.2752 8.24486 -3.21601
17 1 10.1271 23.3843 9.15047 -3.35831
22 1 10.9538 25.9723 8.24486 -3.25014
35 1 13.4339 24.8632 7.33925 -1.33446
16 1 15.0873 23.3843 9.15047 -3.35831
20 1 17.5674 22.2752 8.24486 -3.21601
21 1 18.3941 24.8632 7.33925 -1.33446
44 1 15.914 25.9723 8.24486 -3.25014
36 1 13.4339 27.0815 9.15047 -3.37595
41 1 18.3941 27.0815 9.15047 -3.37595
7 1 9.30041 20.7963 10.0561 -3.37587
8 2 11.7805 21.9055 10.9617 -3.37865
13 1 14.2606 20.7963 10.0561 -3.37587
10 2 16.7407 21.9055 10.9617 -3.37865
11 2 14.2606 23.0146 11.8673 -3.37538
34 1 12.6072 24.4935 10.0561 -3.40754
18 1 17.5674 24.4935 10.0561 -3.40754
31 2 15.0873 25.6026 10.9617 -3.37348
19 2 20.0475 25.6026 10.9617 -3.37348
26 2 19.2208 23.0146 11.8673 -3.37538
32 2 12.6072 26.7117 11.8673 -3.37345
52 1 12.6072 28.93 13.6785 -3.39562
53 2 13.4339 29.2997 10.9617 -3.37748
33 2 15.0873 27.8209 12.7729 -3.37748
38 1 17.5674 28.93 13.6785 -3.39562
40 2 17.5674 26.7117 11.8673 -3.37345
42 1 15.914 28.1906 10.0561 -3.39562
43 2 18.3941 29.2997 10.9617 -3.37748
60 2 15.914 30.4089 11.8673 -3.37345
37 2 20.0475 27.8209 12.7729 -3.37748
45 2 20.8742 30.4089 11.8673 -3.37345
46 1 20.8742 28.1906 10.0561 -3.39562
54 2 13.4339 31.518 12.7729 -3.37348
57 2 18.3941 31.518 12.7729 -3.37348
58 1 15.914 32.6271 13.6785 -3.40754
62 1 20.8742 32.6271 13.6785 -3.40754
23 2 16.7407 35.2151 12.7729 -3.37865
12 2 21.7009 35.2151 12.7729 -3.37865
30 1 19.2208 36.3243 13.6785 -3.37587
24 1 24.1811 36.3243 13.6785 -3.37587
49 1 15.0873 30.0392 14.5841 -3.37595
39 1 20.0475 30.0392 14.5841 -3.37595
51 1 15.0873 32.2574 16.3953 -1.33446
56 1 17.5674 31.1483 15.4897 -3.25014
59 1 18.3941 33.7363 14.5841 -3.35831
66 1 15.914 34.8454 15.4897 -3.21601
50 1 22.5277 31.1483 15.4897 -3.25014
55 1 20.0475 32.2574 16.3953 -1.33446
61 1 20.8742 34.8454 15.4897 -3.21601
63 1 23.3544 33.7363 14.5841 -3.35831
25 1 16.7407 37.4334 14.5841 -3.35079
65 1 18.3941 35.9546 16.3953 -2.64266
107 1 18.6008 39.3744 17.8009 -2.7757
127 1 16.9474 35.6773 17.8009 -2.53101
27 1 21.7009 37.4334 14.5841 -3.35079
28 1 19.2208 38.5426 15.4897 -3.15008
64 1 23.3544 35.9546 16.3953 -2.64266
117 1 23.561 39.3744 17.8009 -2.7757
140 1 21.9076 35.6773 17.8009 -2.53101
48 1 24.1811 38.5426 15.4897 -3.15008
47 1 16.7407 39.6517 16.3953 -2.91885
29 1 21.7009 39.6517 16.3953 -2.91885
115 1 20.2542 43.0715 17.8009 -1.26965
129 1 25.2144 43.0715 17.8009 -1.26965
110 1 18.6008 43.811 21.9234 -3.38369
114 1 18.6008 41.5927 20.1122 -3.28006
111 1 21.0809 40.4835 19.2065 -3.16609
112 1 21.0809 42.7018 21.0178 -3.34814
113 1 23.561 41.5927 20.1122 -3.28006
122 1 23.561 43.811 21.9234 -3.38369
116 1 26.0411 40.4835 19.2065 -3.16609
120 1 26.0411 42.7018 21.0178 -3.34814
118 2 21.0809 44.9201 22.829 -3.36818
119 1 20.2542 47.5081 21.9234 -3.38569
123 1 22.7343 44.1807 19.2065 -3.16933
124 1 22.7343 46.3989 21.0178 -3.35961
126 1 20.2542 45.2898 20.1122 -3.31146
121 2 26.0411 44.9201 22.829 -3.36818
125 1 25.2144 45.2898 20.1122 -3.31146
128 1 27.6945 44.1807 19.2065 -3.16933
132 1 27.6945 46.3989 21.0178 -3.35961
134 1 25.2144 47.5081 21.9234 -3.38569
135 1 24.3877 47.8778 19.2065 -3.15049
139 1 29.3479 47.8778 19.2065 -3.15049
130 2 22.7343 48.6172 22.829 -3.36818
131 1 21.9076 51.2052 21.9234 -3.38043
138 1 21.9076 48.9869 20.1122 -3.28537
133 2 27.6945 48.6172 22.829 -3.36818
136 1 24.3877 50.0961 21.0178 -3.32761
137 1 26.8678 48.9869 20.1122 -3.28537
141 2 24.3877 52.3144 22.829 -3.36818
144 1 26.8678 51.2052 21.9234 -3.38043
142 1 29.3479 50.0961 21.0178 -3.32761
143 2 29.3479 52.3144 22.829 -3.36818
