ITEM: TIMESTEP
100000
ITEM: NUMBER OF ATOMS
144
ITEM: BOX BOUNDS xy xz yz pp pp pp
0.0000000000000000e+00 3.3481462921667571e+01 4.9602167291359365e+00
0.0000000000000000e+00 5.7120616215819993e+01 1.8600812734259765e+01
0.0000000000000000e+00 1.9734580741297954e+01 4.6029234426340388e+01
ITEM: ATOMS id type x y z c_peatom
70 2 0 0 0 -3.30743
82 2 1.65341 3.69713 0 -3.26568
69 2 4.96022 5.179e-16 0 -3.30743
81 2 6.61362 3.69713 0 -3.26568
80 2 4.13351 4.80627 0.905608 -3.259
86 1 4.42221 6.80655 2.37622 -3.08816
91 2 9.09373 4.80627 0.905608 -3.259
92 1 9.38242 6.80655 2.37622 -3.08816
93 1 6.6582 5.78153 1.40925 -3.05062
94 2 5.78692 8.50339 0.905608 -3.29297
95 2 8.26703 7.39425 0 -3.26568
88 1 6.86978 7.83805 3.11664 -3.14465
76 1 11.6184 5.78153 1.40925 -3.05062
96 2 13.2272 7.39425 0 -3.26568
104 2 10.7471 8.50339 0.905608 -3.29297
89 1 11.83 7.83805 3.11664 -3.14465
68 2 7.44033 12.2005 0.905608 -3.29355
100 1 5.91668 10.5969 2.59996 -3.33936
101 1 6.14963 12.6081 4.47971 -3.33787
102 1 8.48228 11.4443 3.34031 -3.18205
106 1 8.32221 9.52151 1.6282 -3.26732
77 2 12.4005 12.2005 0.905608 -3.29355
90 1 13.2824 9.52151 1.6282 -3.26732
103 1 13.4425 11.4443 3.34031 -3.18205
105 1 10.8769 10.5969 2.59996 -3.33936
108 1 11.1099 12.6081 4.47971 -3.33787
72 1 7.53757 14.1541 2.66775 -3.30689
73 1 7.61103 16.555 3.55339 -2.83846
74 1 10.0485 15.1294 3.501 -3.3079
78 1 12.4978 14.1541 2.66775 -3.30689
79 1 9.96845 13.2074 1.75256 -3.27955
84 1 12.5712 16.555 3.55339 -2.83846
67 1 14.9287 13.2074 1.75256 -3.27955
75 1 15.0087 15.1294 3.501 -3.3079
87 1 9.43987 19.7396 4.0007 -3.17263
99 1 12.108 20.7112 4.83841 -3.11275
98 1 14.4001 19.7396 4.0007 -3.17263
83 1 17.0683 20.7112 4.83841 -3.11275
35 1 8.68101 13.0917 5.13753 -3.00452
21 1 13.6412 13.0917 5.13753 -3.00452
109 1 7.49599 15.2468 5.46837 -3.04722
97 1 12.4562 15.2468 5.46837 -3.04722
85 1 9.96337 17.09 5.01398 -3.25799
71 1 14.9236 17.09 5.01398 -3.25799
7 1 9.33818 20.9006 8.28128 -3.25028
1 1 12.3158 18.0645 5.6929 -3.24522
9 1 9.62798 18.9923 6.62088 -3.16518
5 1 9.82207 21.5887 5.64944 -3.20057
6 1 11.929 19.8764 7.43558 -3.14879
8 2 11.7805 21.9055 8.96168 -3.22549
13 1 14.2984 20.9006 8.28128 -3.25028
2 1 17.276 18.0645 5.6929 -3.24522
3 1 14.5882 18.9923 6.62088 -3.16518
4 1 16.8893 19.8764 7.43558 -3.14879
10 2 16.7407 21.9055 8.96168 -3.22549
14 1 14.7823 21.5887 5.64944 -3.20057
15 1 12.4556 22.4396 6.6116 -3.12865
17 1 10.0646 23.4209 7.39674 -3.19247
34 1 12.586 24.7523 7.90928 -3.38822
44 1 15.1779 25.8016 6.35348 -3.11064
16 1 15.0248 23.4209 7.39674 -3.19247
18 1 17.5462 24.7523 7.90928 -3.38822
20 1 17.4158 22.4396 6.6116 -3.12865
31 2 15.0873 25.6026 8.96168 -3.27948
22 1 20.1381 25.8016 6.35348 -3.11064
19 2 20.0475 25.6026 8.96168 -3.27948
36 1 13.5584 27.4086 7.44632 -3.0072
53 2 13.4339 29.2997 8.96168 -3.25322
41 1 18.5186 27.4086 7.44632 -3.0072
42 1 15.9974 28.1598 8.00342 -3.35921
43 2 18.3941 29.2997 8.96168 -3.25322
46 1 20.9576 28.1598 8.00342 -3.35921
32 2 12.6072 26.7117 9.86729 -3.3461
52 1 12.5239 28.9608 11.7312 -3.35921
33 2 15.0873 27.8209 10.7729 -3.25322
38 1 17.4841 28.9608 11.7312 -3.35921
40 2 17.5674 26.7117 9.86729 -3.3461
49 1 14.9629 29.7121 12.2883 -3.0072
60 2 15.914 30.4089 9.86729 -3.3461
37 2 20.0475 27.8209 10.7729 -3.25322
39 1 19.9231 29.7121 12.2883 -3.0072
45 2 20.8742 30.4089 9.86729 -3.3461
54 2 13.4339 31.518 10.7729 -3.27948
50 1 13.3434 31.319 13.3811 -3.11064
57 2 18.3941 31.518 10.7729 -3.27948
58 1 15.9353 32.3683 11.8253 -3.38822
59 1 18.4566 33.6997 12.3378 -3.19247
66 1 16.0656 34.6811 13.123 -3.12865
56 1 18.3036 31.319 13.3811 -3.11064
11 2 19.2208 34.106 9.86729 -3.28096
61 1 21.0258 34.6811 13.123 -3.12865
62 1 20.8955 32.3683 11.8253 -3.38822
63 1 23.4168 33.6997 12.3378 -3.19247
26 2 24.1811 34.106 9.86729 -3.28096
23 2 16.7407 35.2151 10.7729 -3.22549
25 1 16.5922 37.2442 12.299 -3.14879
65 1 18.6992 35.532 14.0851 -3.20057
28 1 18.8933 38.1283 13.1137 -3.16518
47 1 16.2054 39.0561 14.0417 -3.24522
12 2 21.7009 35.2151 10.7729 -3.22549
27 1 21.5524 37.2442 12.299 -3.14879
30 1 19.1831 36.22 11.4533 -3.25028
64 1 23.6594 35.532 14.0851 -3.20057
48 1 23.8535 38.1283 13.1137 -3.16518
29 1 21.1656 39.0561 14.0417 -3.24522
24 1 24.1433 36.22 11.4533 -3.25028
107 1 18.5579 40.0306 14.7206 -3.25799
117 1 23.5181 40.0306 14.7206 -3.25799
115 1 21.0253 41.8738 14.2662 -3.04722
129 1 25.9855 41.8738 14.2662 -3.04722
51 1 19.8402 44.0289 14.5971 -3.00452
55 1 24.8005 44.0289 14.5971 -3.00452
127 1 16.4132 36.4094 14.8962 -3.11275
135 1 19.0814 37.381 15.7339 -3.17263
140 1 21.3734 36.4094 14.8962 -3.11275
139 1 24.0416 37.381 15.7339 -3.17263
110 1 18.5528 43.9133 17.982 -3.27955
114 1 18.4728 41.9913 16.2336 -3.3079
111 1 20.9102 40.5656 16.1812 -2.83846
112 1 20.9837 42.9665 17.0668 -3.30689
113 1 23.433 41.9913 16.2336 -3.3079
122 1 23.513 43.9133 17.982 -3.27955
116 1 25.8704 40.5656 16.1812 -2.83846
120 1 25.9439 42.9665 17.0668 -3.30689
118 2 21.0809 44.9201 18.829 -3.29355
119 1 20.199 47.5991 18.1064 -3.26732
123 1 22.3716 44.5125 15.2549 -3.33787
124 1 22.6046 46.5237 17.1346 -3.33936
126 1 20.039 45.6763 16.3943 -3.18205
121 2 26.0411 44.9201 18.829 -3.29355
125 1 24.9992 45.6763 16.3943 -3.18205
128 1 27.3318 44.5125 15.2549 -3.33787
132 1 27.5648 46.5237 17.1346 -3.33936
134 1 25.1593 47.5991 18.1064 -3.26732
138 1 21.6515 49.2826 16.6179 -3.14465
130 2 22.7343 48.6172 18.829 -3.29297
131 1 21.863 51.3391 18.3253 -3.05062
137 1 26.6117 49.2826 16.6179 -3.14465
133 2 27.6945 48.6172 18.829 -3.29297
136 1 24.099 50.3141 17.3584 -3.08816
141 2 24.3877 52.3144 18.829 -3.259
144 1 26.8233 51.3391 18.3253 -3.05062
142 1 29.0593 50.3141 17.3584 -3.08816
143 2 29.3479 52.3144 18.829 -3.259
