ITEM: TIMESTEP
0
ITEM: NUMBER OF ATOMS
144
ITEM: BOX BOUNDS xy xz yz pp pp pp
0.0000000000000000e+00 2.2941002372253706e+01 4.9602167291359365e+00
0.0000000000000000e+00 3.9097120807915630e+01 8.0603521848459003e+00
0.0000000000000000e+00 2.0734580741297954e+01 2.8005739018436021e+01
ITEM: ATOMS id type x y z c_peatom
70 2 0 0 0 -3.34036
80 2 4.13351 4.80627 0.905608 -3.35958
69 2 4.96022 0 0 -3.34036
81 2 6.61362 3.69713 0 -3.34529
91 2 9.09373 4.80627 0.905608 -3.35958
82 2 11.5738 3.69713 0 -3.34529
86 1 4.13351 7.02454 2.71682 -3.37276
87 1 4.13351 9.24282 4.52804 -3.19179
88 1 6.61362 8.13368 3.62243 -3.13537
92 1 9.09373 7.02454 2.71682 -3.37276
93 1 6.61362 5.9154 1.81122 -3.36192
94 2 5.78692 8.50339 0.905608 -3.36034
95 2 8.26703 7.39425 0 -3.34529
98 1 9.09373 9.24282 4.52804 -3.19179
106 1 8.26703 9.61253 1.81122 -3.34889
76 1 11.5738 5.9154 1.81122 -3.36192
89 1 11.5738 8.13368 3.62243 -3.13537
90 1 13.2272 9.61253 1.81122 -3.34889
96 2 13.2272 7.39425 0 -3.34529
104 2 10.7471 8.50339 0.905608 -3.36034
68 2 7.44033 12.2005 0.905608 -3.34782
72 1 7.44033 14.4188 2.71682 -3.3702
100 1 5.78692 10.7217 2.71682 -3.3688
101 1 5.78692 12.9399 4.52804 -2.5639
102 1 8.26703 11.8308 3.62243 -3.38699
109 1 8.26703 14.0491 5.18365 -2.09209
77 2 12.4005 12.2005 0.905608 -3.34782
78 1 12.4005 14.4188 2.71682 -3.3702
79 1 9.92043 13.3097 1.81122 -3.3564
97 1 13.2272 14.0491 5.18365 -2.09209
103 1 13.2272 11.8308 3.62243 -3.38699
105 1 10.7471 10.7217 2.71682 -3.3688
108 1 10.7471 12.9399 4.52804 -2.5639
67 1 14.8807 13.3097 1.81122 -3.3564
73 1 7.44033 16.6371 4.52804 -2.3812
74 1 9.92043 15.5279 3.62243 -3.40844
84 1 12.4005 16.6371 4.52804 -2.3812
75 1 14.8807 15.5279 3.62243 -3.40844
9 1 4.03018 9.56632 6.74486 -3.18129
1 1 6.51028 8.45718 5.83925 -2.5808
3 1 8.99039 9.56632 6.74486 -3.18129
2 1 11.4705 8.45718 5.83925 -2.5808
7 1 4.03018 11.7846 8.55608 -3.38828
5 1 4.85688 12.1543 5.83925 -2.43319
6 1 6.51028 10.6755 7.65047 -3.3153
8 2 6.51028 12.8937 9.46168 -3.3449
13 1 8.99039 11.7846 8.55608 -3.38828
15 1 7.33699 13.2634 6.74486 -2.8634
17 1 4.85688 14.3726 7.65047 -3.42683
99 1 6.61362 10.352 5.18365 -2.69773
4 1 11.4705 10.6755 7.65047 -3.3153
10 2 11.4705 12.8937 9.46168 -3.3449
14 1 9.8171 12.1543 5.83925 -2.43319
16 1 9.8171 14.3726 7.65047 -3.42683
20 1 12.2972 13.2634 6.74486 -2.8634
83 1 11.5738 10.352 5.18365 -2.69773
34 1 7.33699 15.4817 8.55608 -3.36919
35 1 8.16369 15.8514 5.83925 -1.71598
36 1 8.16369 18.0697 7.65047 -3.4223
18 1 12.2972 15.4817 8.55608 -3.36919
21 1 13.1239 15.8514 5.83925 -1.71598
31 2 9.8171 16.5909 9.46168 -3.34956
41 1 13.1239 18.0697 7.65047 -3.4223
42 1 10.6438 19.1788 8.55608 -3.37939
44 1 10.6438 16.9606 6.74486 -2.74822
85 1 9.92043 17.7462 5.18365 -2.5177
19 2 14.7773 16.5909 9.46168 -3.34956
22 1 15.604 16.9606 6.74486 -2.74822
46 1 15.604 19.1788 8.55608 -3.37939
71 1 14.8807 17.7462 5.18365 -2.5177
53 2 8.16369 20.288 9.46168 -3.34106
43 2 13.1239 20.288 9.46168 -3.34106
26 2 13.9506 14.0029 10.3673 -3.34408
32 2 7.33699 17.7 10.3673 -3.34122
33 2 9.8171 18.8091 11.2729 -3.34106
40 2 12.2972 17.7 10.3673 -3.34122
37 2 14.7773 18.8091 11.2729 -3.34106
50 1 7.33699 22.1365 13.9897 -2.74822
52 1 7.33699 19.9183 12.1785 -3.37939
54 2 8.16369 22.5063 11.2729 -3.34956
38 1 12.2972 19.9183 12.1785 -3.37939
49 1 9.8171 21.0274 13.0841 -3.4223
51 1 9.8171 23.2457 14.8953 -1.71598
56 1 12.2972 22.1365 13.9897 -2.74822
57 2 13.1239 22.5063 11.2729 -3.34956
58 1 10.6438 23.6154 12.1785 -3.36919
60 2 10.6438 21.3971 10.3673 -3.34122
39 1 14.7773 21.0274 13.0841 -3.4223
45 2 15.604 21.3971 10.3673 -3.34122
55 1 14.7773 23.2457 14.8953 -1.71598
62 1 15.604 23.6154 12.1785 -3.36919
23 2 11.4705 26.2034 11.2729 -3.3449
25 1 11.4705 28.4217 13.0841 -3.3153
59 1 13.1239 24.7245 13.0841 -3.42683
65 1 13.1239 26.9428 14.8953 -2.43319
66 1 10.6438 25.8337 13.9897 -2.8634
11 2 13.9506 25.0943 10.3673 -3.34408
12 2 16.4307 26.2034 11.2729 -3.3449
27 1 16.4307 28.4217 13.0841 -3.3153
30 1 13.9506 27.3125 12.1785 -3.38828
61 1 15.604 25.8337 13.9897 -2.8634
63 1 18.0841 24.7245 13.0841 -3.42683
64 1 18.0841 26.9428 14.8953 -2.43319
24 1 18.9108 27.3125 12.1785 -3.38828
47 1 11.4705 30.6399 14.8953 -2.5808
28 1 13.9506 29.5308 13.9897 -3.18129
29 1 16.4307 30.6399 14.8953 -2.5808
48 1 18.9108 29.5308 13.9897 -3.18129
107 1 8.06035 21.3509 15.5509 -2.5177
114 1 8.06035 23.5692 17.1122 -3.40844
111 1 10.5405 22.46 16.2065 -2.3812
113 1 13.0206 23.5692 17.1122 -3.40844
117 1 13.0206 21.3509 15.5509 -2.5177
116 1 15.5007 22.46 16.2065 -2.3812
110 1 8.06035 25.7875 18.9234 -3.3564
112 1 10.5405 24.6783 18.0178 -3.3702
115 1 9.71376 25.048 15.5509 -2.09209
118 2 10.5405 26.8966 19.829 -3.34782
122 1 13.0206 25.7875 18.9234 -3.3564
123 1 12.1939 26.1572 16.2065 -2.5639
124 1 12.1939 28.3755 18.0178 -3.3688
126 1 9.71376 27.2663 17.1122 -3.38699
127 1 11.3672 28.7452 15.5509 -2.69773
120 1 15.5007 24.6783 18.0178 -3.3702
121 2 15.5007 26.8966 19.829 -3.34782
125 1 14.674 27.2663 17.1122 -3.38699
128 1 17.1541 26.1572 16.2065 -2.5639
129 1 14.674 25.048 15.5509 -2.09209
132 1 17.1541 28.3755 18.0178 -3.3688
140 1 16.3274 28.7452 15.5509 -2.69773
119 1 9.71376 29.4846 18.9234 -3.34889
130 2 12.1939 30.5937 19.829 -3.36034
131 1 11.3672 33.1817 18.9234 -3.36192
138 1 11.3672 30.9634 17.1122 -3.13537
133 2 17.1541 30.5937 19.829 -3.36034
134 1 14.674 29.4846 18.9234 -3.34889
135 1 13.8473 29.8543 16.2065 -3.19179
136 1 13.8473 32.0726 18.0178 -3.37276
137 1 16.3274 30.9634 17.1122 -3.13537
144 1 16.3274 33.1817 18.9234 -3.36192
139 1 18.8075 29.8543 16.2065 -3.19179
142 1 18.8075 32.0726 18.0178 -3.37276
141 2 13.8473 34.2909 19.829 -3.35958
143 2 18.8075 34.2909 19.829 -3.35958
