#Lammps coordinate file for CSL - Axis: [1 1 1]  Angle: (1, 3) -> 59.99999999999999  Plane indices: [0 1 1]  z-position: [5.6836451853244885 17.050935555973464]  Repeats: 1 1 (3, 3) (black, white)  Fixed: 2.228  Boundary equiv: True
144 atoms

2 atom types

0.0 9.920433458271871 xlo xhi
0.0 11.091381789479609 ylo yhi
0.0 22.734580741297954 zlo zhi
4.9602167291359365 17.360758551975785 46.02923442634038 xy xz yz

Atoms

1 1 11.160487640555857 17.468926318430384 6.839252716211904
2 1 16.12070436969179 17.468926318430384 6.839252716211904
3 1 13.640596005123825 18.578064497378346 7.74486024709932
4 1 16.120704369691794 19.687202676326308 8.650467777986734
5 1 19.427515522449085 21.166053581590255 6.839252716211904
6 1 11.160487640555857 19.687202676326308 8.650467777986734
7 1 8.68037927598789 20.79634085527427 9.55607530887415
8 2 11.160487640555857 21.905479034222232 10.461682839761563
9 1 8.68037927598789 18.57806449737835 7.744860247099319
10 2 16.120704369691794 21.905479034222232 10.461682839761563
11 2 13.640596005123825 23.01461721317019 11.367290370648979
12 2 16.120704369691794 24.123755392118152 12.272897901536393
13 1 13.640596005123825 20.79634085527427 9.55607530887415
14 1 14.467298793313146 21.166053581590255 6.839252716211904
15 1 11.98719042874518 22.275191760538217 7.744860247099319
16 1 14.467298793313148 23.38432993948618 8.650467777986734
17 1 19.427515522449085 23.38432993948618 8.650467777986734
18 1 16.947407157881116 24.493468118434137 9.55607530887415
19 2 19.427515522449085 25.6026062973821 10.461682839761563
20 1 16.947407157881116 22.275191760538217 7.74486024709932
21 1 17.77410994607044 24.863180844750126 6.839252716211903
22 1 20.254218310638407 25.972319023698088 7.744860247099318
23 2 11.160487640555859 24.123755392118152 12.272897901536393
24 1 8.680379275987892 25.232893571066114 13.178505432423808
25 1 11.160487640555859 26.342031750014076 14.084112963311222
26 2 8.680379275987892 23.01461721317019 11.367290370648979
27 1 16.120704369691794 26.342031750014076 14.084112963311222
28 1 13.640596005123827 27.451169928962035 14.989720494198638
29 1 16.120704369691794 28.560308107909997 15.895328025086053
30 1 13.640596005123827 25.232893571066114 13.178505432423808
31 2 14.467298793313148 25.602606297382103 10.461682839761563
32 2 11.987190428745182 26.71174447633006 11.367290370648979
33 2 14.467298793313148 27.820882655278023 12.272897901536393
34 1 11.987190428745182 24.49346811843414 9.55607530887415
35 1 12.813893216934503 24.863180844750126 6.839252716211903
36 1 12.813893216934503 27.08145720264605 8.650467777986734
37 2 19.427515522449085 27.820882655278023 12.272897901536393
38 1 16.947407157881116 28.930020834225985 13.178505432423808
39 1 19.427515522449085 30.039159013173947 14.084112963311224
40 2 16.947407157881116 26.71174447633006 11.367290370648979
41 1 17.77410994607044 27.081457202646046 8.650467777986734
42 1 15.29400158150247 28.19059538159401 9.55607530887415
43 2 17.77410994607044 29.29973356054197 10.461682839761563
44 1 15.29400158150247 25.972319023698088 7.744860247099319
45 2 20.254218310638407 30.408871739489932 11.367290370648977
46 1 20.254218310638407 28.190595381594008 9.55607530887415
47 1 11.16048764055586 28.56030810791 15.895328025086052
48 1 8.680379275987892 27.451169928962038 14.989720494198638
49 1 14.467298793313148 30.039159013173947 14.084112963311222
50 1 11.987190428745183 31.148297192121905 14.989720494198638
51 1 14.46729879331315 32.25743537106987 15.895328025086053
52 1 11.987190428745183 28.930020834225985 13.178505432423808
53 2 12.813893216934503 29.29973356054197 10.461682839761563
54 2 12.813893216934504 31.518009918437894 12.272897901536393
55 1 19.427515522449085 32.25743537106987 15.895328025086052
56 1 16.947407157881116 31.148297192121905 14.98972049419864
57 2 17.77410994607044 31.518009918437894 12.272897901536393
58 1 15.294001581502473 32.627148097385856 13.178505432423808
59 1 17.77410994607044 33.736286276333814 14.084112963311224
60 2 15.29400158150247 30.408871739489932 11.367290370648979
61 1 20.254218310638407 34.84542445528177 14.989720494198636
62 1 20.254218310638404 32.627148097385856 13.178505432423808
63 1 12.813893216934504 33.736286276333814 14.08411296331122
64 1 12.813893216934504 35.95456263422974 15.895328025086052
65 1 17.77410994607044 35.95456263422974 15.89532802508605
66 1 15.294001581502473 34.84542445528177 14.989720494198638
67 1 0.0 2.218276357895922 1.8112150617748295
68 2 2.4801083645679682 1.109138178947962 0.9056075308874147
69 2 4.960216729135936 0.0 -1.6653345369377348e-16
70 2 0.0 0.0 0.0
71 1 0.0 6.654829073687768 5.6836451853244885
72 1 2.4801083645679682 3.327414536843884 2.7168225926622442
73 1 2.4801083645679682 5.545690894739806 4.528037654437074
74 1 4.960216729135936 4.436552715791845 3.622430123549659
75 1 0.0 4.436552715791845 3.622430123549659
76 1 1.6534055763786455 5.915403621055794 1.811215061774829
77 2 7.440325093703903 1.109138178947962 0.9056075308874145
78 1 7.440325093703903 3.327414536843884 2.7168225926622442
79 1 4.960216729135936 2.218276357895922 1.8112150617748293
80 2 4.133513940946613 4.806265442107832 0.9056075308874143
81 2 6.61362230551458 3.697127263159871 -6.106226635438361e-16
82 2 1.6534055763786455 3.697127263159871 -3.885780586188048e-16
83 1 1.6534055763786455 10.351956336847639 5.6836451853244885
84 1 7.440325093703903 5.545690894739806 4.528037654437074
85 1 4.960216729135936 6.654829073687768 5.6836451853244885
86 1 4.133513940946613 7.024541800003755 2.716822592662244
87 1 4.133513940946613 9.242818157899677 4.528037654437074
88 1 6.61362230551458 8.133679978951715 3.6224301235496585
89 1 1.6534055763786455 8.133679978951717 3.6224301235496585
90 1 3.306811152757291 9.612530884215664 1.8112150617748288
91 2 9.093730670082548 4.806265442107832 0.9056075308874143
92 1 9.093730670082547 7.024541800003755 2.716822592662244
93 1 6.61362230551458 5.915403621055793 1.8112150617748288
94 2 5.7869195173252574 8.503392705267704 0.9056075308874139
95 2 8.267027881893226 7.394254526319742 -9.43689570931383e-16
96 2 3.306811152757291 7.394254526319742 -7.216449660063518e-16
97 1 3.306811152757291 14.04908360000751 5.683645185324488
98 1 9.093730670082547 9.242818157899677 4.528037654437074
99 1 6.613622305514581 10.351956336847639 5.6836451853244885
100 1 5.786919517325258 10.721669063163626 2.7168225926622434
101 1 5.786919517325258 12.939945421059548 4.528037654437073
102 1 8.267027881893226 11.830807242111586 3.622430123549658
103 1 3.306811152757291 11.830807242111588 3.622430123549658
104 2 10.747136246461192 8.503392705267704 0.9056075308874139
105 1 10.747136246461192 10.721669063163626 2.7168225926622434
106 1 8.267027881893226 9.612530884215664 1.8112150617748286
107 1 17.360758551975778 39.374405352652616 17.050935555973467
108 1 10.747136246461192 12.939945421059548 4.528037654437073
109 1 8.267027881893226 14.04908360000751 5.683645185324488
110 1 17.360758551975778 43.810958068444464 20.923365679523123
111 1 19.840866916543746 40.48354353160058 18.20654308686088
112 1 19.840866916543746 42.701819889496505 20.01775814863571
113 1 22.320975281111714 41.59268171054855 19.112150617748295
114 1 17.360758551975778 41.59268171054855 19.112150617748295
115 1 19.014164128354423 43.07153261581249 17.050935555973464
116 1 24.801083645679682 40.48354353160058 18.20654308686088
117 1 22.320975281111714 39.374405352652616 17.050935555973464
118 2 19.840866916543746 44.92009624739242 21.82897321041054
119 1 19.014164128354423 47.508085331604335 20.923365679523123
120 1 24.801083645679682 42.701819889496505 20.017758148635707
121 2 24.801083645679682 44.92009624739242 21.82897321041054
122 1 22.320975281111714 43.810958068444464 20.923365679523126
123 1 21.49427249292239 44.180670794760445 18.20654308686088
124 1 21.49427249292239 46.398947152656376 20.01775814863571
125 1 23.97438085749036 45.28980897370842 19.112150617748295
126 1 19.014164128354423 45.28980897370842 19.112150617748295
127 1 20.66756970473307 46.76865987897236 17.050935555973464
128 1 26.454489222058328 44.180670794760445 18.20654308686088
129 1 23.97438085749036 43.07153261581249 17.050935555973464
130 2 21.49427249292239 48.61722351055229 21.82897321041054
131 1 20.66756970473307 51.205212594764205 20.923365679523123
132 1 26.454489222058328 46.398947152656376 20.017758148635707
133 2 26.454489222058328 48.61722351055229 21.82897321041054
134 1 23.97438085749036 47.508085331604335 20.923365679523126
135 1 23.147678069301037 47.877798057920316 18.20654308686088
136 1 23.147678069301037 50.09607441581625 20.01775814863571
137 1 25.627786433869005 48.98693623686829 19.112150617748295
138 1 20.66756970473307 48.98693623686829 19.112150617748295
139 1 28.107894798436973 47.877798057920316 18.20654308686088
140 1 25.627786433869005 46.76865987897236 17.050935555973464
141 2 23.147678069301037 52.314350773712164 21.82897321041054
142 1 28.107894798436973 50.09607441581625 20.017758148635707
143 2 28.107894798436973 52.314350773712164 21.82897321041054
144 1 25.627786433869005 51.205212594764205 20.923365679523126
