LAMMPS (29 Aug 2024 - Update 2)
#---------------------------------------------------------------------------------------------------
# Initilise important features of simulation
#---------------------------------------------------------------------------------------------------
units 		metal	# Use metals units (Ang, ps, eV, bar, etc.)
dimension 	3		# Run the simulation in three dimensions
boundary 	p p p	# Use periodic boundaries in all three dimensions
atom_style 	atomic	#
#box tilt large		# Allow larger than normal tilt factors

variable T_start equal 600
variable T_end equal 200
variable tstep equal 0.002
timestep ${tstep}
timestep 0.002

read_data   lammps.txt	# Read in atom coordinates from a file
Reading data file ...
  triclinic box = (0 0 0) to (9.9204335 11.091382 24.734581) with tilt (4.9602167 12.400542 37.710698)
WARNING: Triclinic box skew is large. LAMMPS will run inefficiently. (src/domain.cpp:221)
  1 by 1 by 1 MPI processor grid
  reading atoms ...
  144 atoms
  read_data CPU = 0.001 seconds

#---------------------------------------------------------------------------------------------------
# Define how the forces between the atoms will be modelled
#---------------------------------------------------------------------------------------------------
pair_style eam/alloy
pair_coeff * * Zope-Ti-Al-2003.eam.alloy.txt Al Al

#---------------------------------------------------------------------------------------------------
# Set behaviour of simulation
#---------------------------------------------------------------------------------------------------
group g_fixed type 2
36 atoms in group g_fixed
group g_other type 1
108 atoms in group g_other
fix f_freeze g_fixed setforce 0.0 0.0 0.0 	# Hold atoms of type 2 fixed in place
#fix f_constrain g_other setforce 0.0 0.0 NULL 	# All atoms of type 1 to move only in z direction

#---------------------------------------------------------------------------------------------------
# Specify what information to write out
#---------------------------------------------------------------------------------------------------
thermo_style custom step atoms temp pe ke etotal fmax
thermo_modify format 6 %20.10f
thermo 1000

#compute statom all stress/atom NULL
compute peatom all pe/atom
dump 1 all custom 100000 dump.* id type x y z c_peatom
dump_modify 1 first yes


#---------------------------------------------------------------------------------------------------
# Initial relaxation
#---------------------------------------------------------------------------------------------------
velocity all set 0.0 0.0 0.0

min_style 	cg
min_modify dmax 0.1
minimize 	0.0 1.0e-6 10000 100000
Neighbor list info ...
  update: every = 1 steps, delay = 0 steps, check = yes
  max neighbors/atom: 2000, page size: 100000
  master list distance cutoff = 8.724884
  ghost atom cutoff = 8.724884
  binsize = 4.362442, bins = 7 12 6
  1 neighbor lists, perpetual/occasional/extra = 1 0 0
  (1) pair eam/alloy, perpetual
      attributes: half, newton on
      pair build: half/bin/atomonly/newton/tri
      stencil: half/bin/3d/tri
      bin: standard
Per MPI rank memory allocation (min/avg/max) = 4.657 | 4.657 | 4.657 Mbytes
   Step        Atoms         Temp          PotEng         KinEng         TotEng          Fmax     
         0         144   0             -457.31627      0                  -457.3162687304  3.1335338    
        95         144   0             -468.29848      0                  -468.2984847395  1.2175695e-07
Loop time of 0.0159742 on 1 procs for 95 steps with 144 atoms

93.0% CPU use with 1 MPI tasks x no OpenMP threads

Minimization stats:
  Stopping criterion = force tolerance
  Energy initial, next-to-last, final = 
     -457.316268730417  -468.298484739519  -468.298484739525
  Force two-norm initial, final = 11.268295 7.4460667e-07
  Force max component initial, final = 3.1335338 1.2175695e-07
  Final line search alpha, max atom move = 1 1.2175695e-07
  Iterations, force evaluations = 95 182

MPI task timing breakdown:
Section |  min time  |  avg time  |  max time  |%varavg| %total
---------------------------------------------------------------
Pair    | 0.013494   | 0.013494   | 0.013494   |   0.0 | 84.48
Neigh   | 0          | 0          | 0          |   0.0 |  0.00
Comm    | 0.00080551 | 0.00080551 | 0.00080551 |   0.0 |  5.04
Output  | 0          | 0          | 0          |   0.0 |  0.00
Modify  | 2.9215e-05 | 2.9215e-05 | 2.9215e-05 |   0.0 |  0.18
Other   |            | 0.001645   |            |       | 10.30

Nlocal:            144 ave         144 max         144 min
Histogram: 1 0 0 0 0 0 0 0 0 0
Nghost:           2580 ave        2580 max        2580 min
Histogram: 1 0 0 0 0 0 0 0 0 0
Neighs:          10880 ave       10880 max       10880 min
Histogram: 1 0 0 0 0 0 0 0 0 0

Total # of neighbors = 10880
Ave neighs/atom = 75.555556
Neighbor list builds = 0
Dangerous builds = 0
#---------------------------------------------------------------------------------------------------
# Anneal boundary structures
#---------------------------------------------------------------------------------------------------
reset_timestep 100000
fix md g_other nvt temp ${T_start} ${T_end} $(100.0*v_tstep)
fix md g_other nvt temp 600 ${T_end} $(100.0*v_tstep)
fix md g_other nvt temp 600 200 $(100.0*v_tstep)
fix md g_other nvt temp 600 200 0.2000000000000000111

velocity all create ${T_start} 4928459 rot yes mom yes dist gaussian
velocity all create 600 4928459 rot yes mom yes dist gaussian
run 10000
Per MPI rank memory allocation (min/avg/max) = 4.914 | 4.914 | 4.914 Mbytes
   Step        Atoms         Temp          PotEng         KinEng         TotEng          Fmax     
    100000         144   600           -468.29848      11.09052           -457.2079642985  1.2175695e-07
    101000         144   599.67756     -463.20871      11.08456           -452.1241477671  1.3195508    
    102000         144   621.41671     -463.24437      11.486391          -451.7579836556  1.3735547    
    103000         144   550.65599     -463.27769      10.178436          -453.0992498411  1.153127     
    104000         144   521.18294     -465.45451      9.6336501          -455.8208577846  0.88552118   
    105000         144   479.74532     -466.48205      8.8677089          -457.6143377557  0.99690827   
    106000         144   487.28169     -466.55103      9.0070127          -457.5440146265  1.2122929    
    107000         144   421.5727      -466.96021      7.7924344          -459.1677721813  0.94123144   
    108000         144   391.94847     -468.25271      7.2448543          -461.0078566962  0.95914528   
    109000         144   356.75986     -468.84309      6.5944209          -462.2486738015  1.0085036    
    110000         144   330.70499     -469.23308      6.1128175          -463.1202672538  0.69815155   
Loop time of 0.828834 on 1 procs for 10000 steps with 144 atoms

Performance: 2084.856 ns/day, 0.012 hours/ns, 12065.142 timesteps/s, 1.737 Matom-step/s
99.6% CPU use with 1 MPI tasks x no OpenMP threads

MPI task timing breakdown:
Section |  min time  |  avg time  |  max time  |%varavg| %total
---------------------------------------------------------------
Pair    | 0.70908    | 0.70908    | 0.70908    |   0.0 | 85.55
Neigh   | 0.050093   | 0.050093   | 0.050093   |   0.0 |  6.04
Comm    | 0.045932   | 0.045932   | 0.045932   |   0.0 |  5.54
Output  | 7.0751e-05 | 7.0751e-05 | 7.0751e-05 |   0.0 |  0.01
Modify  | 0.012171   | 0.012171   | 0.012171   |   0.0 |  1.47
Other   |            | 0.01148    |            |       |  1.39

Nlocal:            144 ave         144 max         144 min
Histogram: 1 0 0 0 0 0 0 0 0 0
Nghost:           2634 ave        2634 max        2634 min
Histogram: 1 0 0 0 0 0 0 0 0 0
Neighs:          10596 ave       10596 max       10596 min
Histogram: 1 0 0 0 0 0 0 0 0 0

Total # of neighbors = 10596
Ave neighs/atom = 73.583333
Neighbor list builds = 118
Dangerous builds = 0
unfix md

#---------------------------------------------------------------------------------------------------
# Final relaxation
#---------------------------------------------------------------------------------------------------
velocity all set 0.0 0.0 0.0

min_style 	cg
min_modify dmax 0.1
minimize 	0.0 1.0e-6 10000 100000
Per MPI rank memory allocation (min/avg/max) = 6.039 | 6.039 | 6.039 Mbytes
   Step        Atoms         Temp          PotEng         KinEng         TotEng          Fmax     
    110000         144   0             -469.23308      0                  -469.2330847251  0.69815155   
    110072         144   0             -472.26178      0                  -472.2617841278  1.9433757e-07
Loop time of 0.0121413 on 1 procs for 72 steps with 144 atoms

97.9% CPU use with 1 MPI tasks x no OpenMP threads

Minimization stats:
  Stopping criterion = force tolerance
  Energy initial, next-to-last, final = 
     -469.233084725145  -472.261784127777  -472.261784127775
  Force two-norm initial, final = 4.4662048 8.9644166e-07
  Force max component initial, final = 0.69815155 1.9433757e-07
  Final line search alpha, max atom move = 1 1.9433757e-07
  Iterations, force evaluations = 72 142

MPI task timing breakdown:
Section |  min time  |  avg time  |  max time  |%varavg| %total
---------------------------------------------------------------
Pair    | 0.010824   | 0.010824   | 0.010824   |   0.0 | 89.15
Neigh   | 0          | 0          | 0          |   0.0 |  0.00
Comm    | 0.00064166 | 0.00064166 | 0.00064166 |   0.0 |  5.28
Output  | 0          | 0          | 0          |   0.0 |  0.00
Modify  | 2.1543e-05 | 2.1543e-05 | 2.1543e-05 |   0.0 |  0.18
Other   |            | 0.0006543  |            |       |  5.39

Nlocal:            144 ave         144 max         144 min
Histogram: 1 0 0 0 0 0 0 0 0 0
Nghost:           2656 ave        2656 max        2656 min
Histogram: 1 0 0 0 0 0 0 0 0 0
Neighs:          10627 ave       10627 max       10627 min
Histogram: 1 0 0 0 0 0 0 0 0 0

Total # of neighbors = 10627
Ave neighs/atom = 73.798611
Neighbor list builds = 0
Dangerous builds = 0

Total wall time: 0:00:00
