ITEM: TIMESTEP
100000
ITEM: NUMBER OF ATOMS
144
ITEM: BOX BOUNDS xy xz yz pp pp pp
0.0000000000000000e+00 3.4721517103951555e+01 4.9602167291359365e+00
0.0000000000000000e+00 4.6029234426340395e+01 1.9840866916543746e+01
0.0000000000000000e+00 2.2734580741297954e+01 3.4937852636860782e+01
ITEM: ATOMS id type x y z c_peatom
69 2 4.96022 2.55924e-16 0 -3.34823
70 2 0 0 0 -3.34823
82 2 1.65341 3.69713 0 -3.36266
81 2 6.61362 3.69713 0 -3.36266
80 2 4.13351 4.80627 0.905608 -3.35881
86 1 4.15431 6.98057 2.68398 -3.38747
88 1 6.63765 8.07499 3.47101 -3.28854
91 2 9.09373 4.80627 0.905608 -3.35881
92 1 9.11453 6.98057 2.68398 -3.38747
93 1 6.62511 5.85825 1.81046 -3.3596
94 2 5.78692 8.50339 0.905608 -3.37408
95 2 8.26703 7.39425 0 -3.36266
76 1 11.5853 5.85825 1.81046 -3.3596
89 1 11.5979 8.07499 3.47101 -3.28854
96 2 13.2272 7.39425 0 -3.36266
104 2 10.7471 8.50339 0.905608 -3.37408
68 2 7.44033 12.2005 0.905608 -3.34467
79 1 9.91155 13.3125 1.8747 -3.34249
98 1 9.0514 9.21592 4.3302 -3.19088
100 1 5.79491 10.7796 2.71609 -3.34553
102 1 8.25556 11.8723 3.83271 -3.31745
106 1 8.26885 9.6551 1.76387 -3.35701
67 1 14.8718 13.3125 1.8747 -3.34249
77 2 12.4005 12.2005 0.905608 -3.34467
87 1 14.0116 9.21592 4.3302 -3.19088
90 1 13.2291 9.6551 1.76387 -3.35701
103 1 13.2158 11.8723 3.83271 -3.31745
105 1 10.7551 10.7796 2.71609 -3.34553
72 1 7.44812 14.4057 2.82936 -3.35654
74 1 9.97382 15.5078 3.70182 -3.36212
78 1 12.4083 14.4057 2.82936 -3.35654
75 1 14.934 15.5078 3.70182 -3.36212
2 1 7.59375 11.866 6.88448 -3.17438
99 1 6.50653 10.0042 5.32718 -3.09941
108 1 10.765 12.9312 4.83173 -3.3015
9 1 10.0009 12.9558 7.69385 -3.27641
1 1 12.554 11.866 6.88448 -3.17438
83 1 11.4668 10.0042 5.32718 -3.09941
101 1 15.7252 12.9312 4.83173 -3.3015
3 1 14.9611 12.9558 7.69385 -3.27641
109 1 8.30981 14.2653 5.6893 -3.30949
84 1 12.4992 16.7206 4.58744 -3.27628
5 1 10.7932 15.4109 6.59812 -3.30908
6 1 12.4498 14.1725 8.59128 -3.36145
15 1 13.2501 16.741 7.45676 -3.29849
17 1 10.7381 17.7829 8.46993 -3.32339
85 1 10.1054 17.8159 5.38981 -3.17265
97 1 13.27 14.2653 5.6893 -3.30949
73 1 17.4595 16.7206 4.58744 -3.27628
71 1 15.0657 17.8159 5.38981 -3.17265
4 1 17.41 14.1725 8.59128 -3.36145
14 1 15.7534 15.4109 6.59812 -3.30908
16 1 15.6983 17.7829 8.46993 -3.32339
20 1 18.2104 16.741 7.45676 -3.29849
22 1 11.526 20.4357 7.91188 -3.18525
35 1 13.9416 19.6401 6.93214 -3.0967
36 1 14.0593 21.5837 8.76165 -3.28512
21 1 18.9018 19.6401 6.93214 -3.0967
41 1 19.0196 21.5837 8.76165 -3.28512
44 1 16.4862 20.4357 7.91188 -3.18525
7 1 9.92797 15.2491 9.46448 -3.35473
8 2 12.4005 16.3598 10.4617 -3.33297
13 1 14.8882 15.2491 9.46448 -3.35473
10 2 17.3608 16.3598 10.4617 -3.33297
32 2 13.2272 21.1661 11.3673 -3.37309
34 1 13.2301 18.89 9.55714 -3.34604
18 1 18.1903 18.89 9.55714 -3.34604
31 2 15.7074 20.0569 10.4617 -3.35714
33 2 15.7074 22.2752 12.2729 -3.36629
40 2 18.1875 21.1661 11.3673 -3.37309
42 1 16.5437 22.6858 9.57325 -3.39214
19 2 20.6676 20.0569 10.4617 -3.35714
37 2 20.6676 22.2752 12.2729 -3.36629
46 1 21.5039 22.6858 9.57325 -3.39214
52 1 13.2176 23.3434 13.1613 -3.39214
53 2 14.0539 23.754 10.4617 -3.36629
54 2 14.0539 25.9723 12.2729 -3.35714
38 1 18.1779 23.3434 13.1613 -3.39214
43 2 19.0142 23.754 10.4617 -3.36629
57 2 19.0142 25.9723 12.2729 -3.35714
58 1 16.5312 27.1392 13.1774 -3.34604
60 2 16.5341 24.8632 11.3673 -3.37309
45 2 21.4943 24.8632 11.3673 -3.37309
62 1 21.4914 27.1392 13.1774 -3.34604
11 2 19.8409 28.5603 11.3673 -3.34756
23 2 17.3608 29.6694 12.2729 -3.33297
26 2 14.8807 28.5603 11.3673 -3.34756
30 1 19.8333 30.7801 13.2701 -3.35473
12 2 22.321 29.6694 12.2729 -3.33297
24 1 24.7936 30.7801 13.2701 -3.35473
49 1 15.702 24.4456 13.9729 -3.28512
51 1 15.8197 26.3891 15.8024 -3.0967
56 1 18.2353 25.5935 14.8227 -3.18525
39 1 20.6622 24.4456 13.9729 -3.28512
50 1 23.1955 25.5935 14.8227 -3.18525
55 1 20.78 26.3891 15.8024 -3.0967
25 1 17.3115 31.8567 14.1433 -3.36145
59 1 19.0232 28.2464 14.2646 -3.32339
65 1 18.9681 30.6183 16.1365 -3.30908
66 1 16.5112 29.2882 15.2778 -3.29849
107 1 19.6559 28.2134 17.3448 -3.17265
116 1 17.2621 29.3086 18.1471 -3.27628
27 1 22.2718 31.8567 14.1433 -3.36145
61 1 21.4714 29.2882 15.2778 -3.29849
63 1 23.9834 28.2464 14.2646 -3.32339
64 1 23.9284 30.6183 16.1365 -3.30908
115 1 21.4515 31.7639 17.0453 -3.30949
117 1 24.6161 28.2134 17.3448 -3.17265
111 1 22.2223 29.3086 18.1471 -3.27628
129 1 26.4117 31.7639 17.0453 -3.30949
28 1 19.7604 33.0734 15.0407 -3.27641
128 1 18.9963 33.098 17.9028 -3.3015
29 1 22.1675 34.1632 15.8501 -3.17438
127 1 23.2548 36.025 17.4074 -3.09941
48 1 24.7207 33.0734 15.0407 -3.27641
123 1 23.9566 33.098 17.9028 -3.3015
47 1 27.1278 34.1632 15.8501 -3.17438
140 1 28.215 36.025 17.4074 -3.09941
114 1 19.7875 30.5214 19.0328 -3.36212
112 1 22.3132 31.6235 19.9052 -3.35654
113 1 24.7477 30.5214 19.0328 -3.36212
120 1 27.2734 31.6235 19.9052 -3.35654
110 1 19.8497 32.7167 20.8599 -3.34249
118 2 22.321 33.8287 21.829 -3.34467
119 1 21.4924 36.3741 20.9707 -3.35701
124 1 23.9664 35.2496 20.0185 -3.34553
126 1 21.5057 34.1569 18.9019 -3.31745
139 1 20.7099 36.8133 18.4044 -3.19088
121 2 27.2812 33.8287 21.829 -3.34467
122 1 24.81 32.7167 20.8599 -3.34249
125 1 26.466 34.1569 18.9019 -3.31745
132 1 28.9266 35.2496 20.0185 -3.34553
134 1 26.4527 36.3741 20.9707 -3.35701
135 1 25.6701 36.8133 18.4044 -3.19088
130 2 23.9744 37.5258 21.829 -3.37408
131 1 23.1362 40.171 20.9241 -3.3596
138 1 23.1236 37.9542 19.2636 -3.28854
133 2 28.9346 37.5258 21.829 -3.37408
136 1 25.607 39.0487 20.0506 -3.38747
137 1 28.0839 37.9542 19.2636 -3.28854
141 2 25.6278 41.223 21.829 -3.35881
144 1 28.0964 40.171 20.9241 -3.3596
142 1 30.5672 39.0487 20.0506 -3.38747
143 2 30.588 41.223 21.829 -3.35881
