#Lammps coordinate file for CSL - Axis: [1 1 1]  Angle: (1, 3) -> 59.99999999999999  Plane indices: [0 1 1]  z-position: [4.9336451853244885 14.800935555973464]  Repeats: 1 1 (3, 3) (black, white)  Fixed: 2.228  Boundary equiv: True
144 atoms

2 atom types

0.0 9.920433458271871 xlo xhi
0.0 11.091381789479609 ylo yhi
0.0 19.734580741297954 zlo zhi
4.9602167291359365 16.1207043696918 46.02923442634038 xy xz yz

Atoms

1 1 10.540460549413865 17.468926318430384 5.339252716211904
2 1 15.500677278549798 17.468926318430384 5.339252716211904
3 1 13.020568913981833 18.578064497378346 6.24486024709932
4 1 15.5006772785498 19.687202676326308 7.150467777986734
5 1 18.807488431307092 21.166053581590255 5.339252716211904
6 1 10.540460549413865 19.687202676326308 7.150467777986734
7 1 8.060352184845899 20.79634085527427 8.05607530887415
8 2 10.540460549413865 21.905479034222232 8.961682839761563
9 1 8.060352184845899 18.57806449737835 6.244860247099318
10 2 15.5006772785498 21.905479034222232 8.961682839761563
11 2 13.020568913981833 23.01461721317019 9.867290370648979
12 2 15.500677278549801 24.123755392118152 10.772897901536393
13 1 13.020568913981833 20.79634085527427 8.05607530887415
14 1 13.847271702171154 21.166053581590255 5.339252716211904
15 1 11.367163337603188 22.275191760538217 6.244860247099318
16 1 13.847271702171156 23.38432993948618 7.150467777986734
17 1 18.807488431307092 23.38432993948618 7.150467777986734
18 1 16.327380066739124 24.493468118434137 8.05607530887415
19 2 18.807488431307092 25.6026062973821 8.961682839761563
20 1 16.327380066739124 22.275191760538217 6.24486024709932
21 1 17.154082854928447 24.863180844750126 5.339252716211902
22 1 19.634191219496415 25.972319023698088 6.244860247099318
23 2 10.540460549413867 24.123755392118152 10.772897901536393
24 1 8.0603521848459 25.232893571066114 11.678505432423808
25 1 10.540460549413867 26.342031750014076 12.584112963311222
26 2 8.0603521848459 23.01461721317019 9.867290370648979
27 1 15.500677278549801 26.342031750014076 12.584112963311222
28 1 13.020568913981835 27.451169928962035 13.489720494198638
29 1 15.500677278549801 28.560308107909997 14.395328025086053
30 1 13.020568913981835 25.232893571066114 11.678505432423808
31 2 13.847271702171156 25.602606297382103 8.961682839761563
32 2 11.36716333760319 26.71174447633006 9.867290370648979
33 2 13.847271702171156 27.820882655278023 10.772897901536393
34 1 11.36716333760319 24.49346811843414 8.05607530887415
35 1 12.19386612579251 24.863180844750126 5.339252716211902
36 1 12.19386612579251 27.08145720264605 7.150467777986734
37 2 18.807488431307092 27.820882655278023 10.772897901536393
38 1 16.327380066739124 28.930020834225985 11.678505432423808
39 1 18.807488431307092 30.039159013173947 12.584112963311224
40 2 16.327380066739124 26.71174447633006 9.867290370648979
41 1 17.154082854928447 27.081457202646046 7.150467777986734
42 1 14.673974490360479 28.19059538159401 8.05607530887415
43 2 17.154082854928447 29.29973356054197 8.961682839761563
44 1 14.673974490360479 25.972319023698088 6.244860247099318
45 2 19.634191219496415 30.408871739489932 9.867290370648977
46 1 19.634191219496415 28.190595381594008 8.05607530887415
47 1 10.540460549413869 28.56030810791 14.395328025086052
48 1 8.0603521848459 27.451169928962038 13.489720494198638
49 1 13.847271702171156 30.039159013173947 12.584112963311222
50 1 11.367163337603191 31.148297192121905 13.489720494198638
51 1 13.847271702171158 32.25743537106987 14.395328025086053
52 1 11.367163337603191 28.930020834225985 11.678505432423808
53 2 12.19386612579251 29.29973356054197 8.961682839761563
54 2 12.193866125792512 31.518009918437894 10.772897901536393
55 1 18.807488431307092 32.25743537106987 14.395328025086052
56 1 16.327380066739124 31.148297192121905 13.48972049419864
57 2 17.154082854928447 31.518009918437894 10.772897901536393
58 1 14.67397449036048 32.627148097385856 11.678505432423808
59 1 17.154082854928447 33.736286276333814 12.584112963311224
60 2 14.673974490360479 30.408871739489932 9.867290370648979
61 1 19.634191219496415 34.84542445528177 13.489720494198636
62 1 19.63419121949641 32.627148097385856 11.678505432423808
63 1 12.193866125792512 33.736286276333814 12.58411296331122
64 1 12.193866125792512 35.95456263422974 14.395328025086052
65 1 17.154082854928447 35.95456263422974 14.39532802508605
66 1 14.67397449036048 34.84542445528177 13.489720494198638
67 1 0.0 2.218276357895922 1.8112150617748295
68 2 2.4801083645679682 1.109138178947962 0.9056075308874145
69 2 4.960216729135936 0.0 -2.220446049250313e-16
70 2 0.0 0.0 0.0
71 1 0.0 6.654829073687768 4.9336451853244885
72 1 2.4801083645679682 3.327414536843884 2.7168225926622442
73 1 2.4801083645679682 5.545690894739806 4.528037654437073
74 1 4.960216729135936 4.436552715791845 3.6224301235496585
75 1 0.0 4.436552715791845 3.6224301235496585
76 1 1.6534055763786455 5.915403621055794 1.811215061774829
77 2 7.440325093703903 1.109138178947962 0.9056075308874143
78 1 7.440325093703903 3.327414536843884 2.7168225926622442
79 1 4.960216729135936 2.218276357895922 1.811215061774829
80 2 4.133513940946613 4.806265442107832 0.9056075308874143
81 2 6.61362230551458 3.697127263159871 -6.661338147750939e-16
82 2 1.6534055763786455 3.697127263159871 -4.440892098500626e-16
83 1 1.6534055763786455 10.351956336847639 4.9336451853244885
84 1 7.440325093703903 5.545690894739806 4.528037654437073
85 1 4.960216729135936 6.654829073687768 4.9336451853244885
86 1 4.133513940946613 7.024541800003755 2.716822592662244
87 1 4.133513940946613 9.242818157899677 4.528037654437073
88 1 6.61362230551458 8.133679978951715 3.6224301235496585
89 1 1.6534055763786455 8.133679978951717 3.6224301235496585
90 1 3.306811152757291 9.612530884215664 1.811215061774829
91 2 9.093730670082548 4.806265442107832 0.9056075308874141
92 1 9.093730670082547 7.024541800003755 2.716822592662244
93 1 6.61362230551458 5.915403621055793 1.811215061774829
94 2 5.7869195173252574 8.503392705267704 0.9056075308874139
95 2 8.267027881893226 7.394254526319742 -9.992007221626409e-16
96 2 3.306811152757291 7.394254526319742 -8.881784197001252e-16
97 1 3.306811152757291 14.04908360000751 4.933645185324487
98 1 9.093730670082547 9.242818157899677 4.528037654437073
99 1 6.613622305514581 10.351956336847639 4.9336451853244885
100 1 5.786919517325258 10.721669063163626 2.7168225926622434
101 1 5.786919517325258 12.939945421059548 4.528037654437073
102 1 8.267027881893226 11.830807242111586 3.6224301235496585
103 1 3.306811152757291 11.830807242111588 3.6224301235496585
104 2 10.747136246461192 8.503392705267704 0.9056075308874136
105 1 10.747136246461192 10.721669063163626 2.7168225926622434
106 1 8.267027881893226 9.612530884215664 1.8112150617748286
107 1 16.120704369691794 39.374405352652616 14.800935555973467
108 1 10.747136246461192 12.939945421059548 4.528037654437073
109 1 8.267027881893226 14.04908360000751 4.933645185324487
110 1 16.120704369691794 43.810958068444464 17.923365679523123
111 1 18.600812734259762 40.48354353160058 15.20654308686088
112 1 18.600812734259762 42.701819889496505 17.01775814863571
113 1 21.08092109882773 41.59268171054855 16.112150617748295
114 1 16.120704369691794 41.59268171054855 16.112150617748295
115 1 17.77410994607044 43.07153261581249 14.800935555973464
116 1 23.5610294633957 40.48354353160058 15.20654308686088
117 1 21.08092109882773 39.374405352652616 14.800935555973464
118 2 18.600812734259762 44.92009624739242 18.82897321041054
119 1 17.77410994607044 47.508085331604335 17.923365679523123
120 1 23.5610294633957 42.701819889496505 17.017758148635707
121 2 23.5610294633957 44.92009624739242 18.82897321041054
122 1 21.08092109882773 43.810958068444464 17.923365679523126
123 1 20.254218310638407 44.180670794760445 15.20654308686088
124 1 20.254218310638407 46.398947152656376 17.01775814863571
125 1 22.734326675206376 45.28980897370842 16.112150617748295
126 1 17.77410994607044 45.28980897370842 16.112150617748295
127 1 19.427515522449085 46.76865987897236 14.800935555973464
128 1 25.214435039774344 44.180670794760445 15.20654308686088
129 1 22.734326675206376 43.07153261581249 14.800935555973464
130 2 20.254218310638407 48.61722351055229 18.82897321041054
131 1 19.427515522449085 51.205212594764205 17.923365679523123
132 1 25.214435039774344 46.398947152656376 17.017758148635707
133 2 25.214435039774344 48.61722351055229 18.82897321041054
134 1 22.734326675206376 47.508085331604335 17.923365679523126
135 1 21.907623887017053 47.877798057920316 15.20654308686088
136 1 21.907623887017053 50.09607441581625 17.01775814863571
137 1 24.38773225158502 48.98693623686829 16.112150617748295
138 1 19.427515522449085 48.98693623686829 16.112150617748295
139 1 26.86784061615299 47.877798057920316 15.20654308686088
140 1 24.38773225158502 46.76865987897236 14.800935555973464
141 2 21.907623887017053 52.314350773712164 18.82897321041054
142 1 26.86784061615299 50.09607441581625 17.017758148635707
143 2 26.86784061615299 52.314350773712164 18.82897321041054
144 1 24.38773225158502 51.205212594764205 17.923365679523126
