#Lammps coordinate file for CSL - Axis: [1 1 1]  Angle: (1, 3) -> 59.99999999999999  Plane indices: [0 1 1]  z-position: [5.4336451853244885 16.300935555973464]  Repeats: 1 1 (3, 3) (black, white)  Fixed: 2.228  Boundary equiv: True
144 atoms

2 atom types

0.0 9.920433458271871 xlo xhi
0.0 11.091381789479609 ylo yhi
0.0 21.734580741297954 zlo zhi
4.9602167291359365 19.840866916543746 37.71069808423068 xy xz yz

Atoms

1 1 12.400541822839841 13.309658147375533 6.339252716211904
2 1 17.360758551975774 13.309658147375531 6.339252716211904
3 1 14.880650187407808 14.418796326323491 7.24486024709932
4 1 17.360758551975774 15.527934505271453 8.150467777986734
5 1 20.667569704733065 17.0067854105354 6.339252716211904
6 1 12.40054182283984 15.527934505271453 8.150467777986734
7 1 9.920433458271873 16.637072684219415 9.05607530887415
8 2 12.400541822839841 17.746210863167377 9.961682839761563
9 1 9.920433458271873 14.418796326323495 7.244860247099319
10 2 17.360758551975774 17.746210863167377 9.961682839761563
11 2 14.88065018740781 18.855349042115336 10.867290370648979
12 2 17.360758551975774 19.964487221063298 11.772897901536393
13 1 14.880650187407808 16.637072684219415 9.05607530887415
14 1 15.707352975597129 17.0067854105354 6.339252716211904
15 1 13.227244611029164 18.115923589483362 7.244860247099319
16 1 15.707352975597129 19.225061768431324 8.150467777986734
17 1 20.667569704733065 19.225061768431324 8.150467777986734
18 1 18.1874613401651 20.334199947379286 9.05607530887415
19 2 20.66756970473307 21.443338126327244 9.961682839761563
20 1 18.187461340165097 18.115923589483362 7.24486024709932
21 1 19.014164128354423 20.70391267369527 6.339252716211903
22 1 21.49427249292239 21.813050852643233 7.244860247099318
23 2 12.400541822839841 19.964487221063298 11.772897901536393
24 1 9.920433458271873 21.07362540001126 12.678505432423808
25 1 12.400541822839841 22.18276357895922 13.584112963311222
26 2 9.920433458271873 18.85534904211534 10.867290370648979
27 1 17.360758551975778 22.18276357895922 13.584112963311222
28 1 14.88065018740781 23.29190175790718 14.489720494198638
29 1 17.360758551975778 24.401039936855142 15.395328025086053
30 1 14.88065018740781 21.07362540001126 12.678505432423808
31 2 15.70735297559713 21.443338126327248 9.961682839761563
32 2 13.227244611029164 22.552476305275206 10.867290370648979
33 2 15.70735297559713 23.66161448422317 11.772897901536393
34 1 13.227244611029164 20.334199947379286 9.05607530887415
35 1 14.053947399218485 20.70391267369527 6.339252716211903
36 1 14.053947399218485 22.922189031591195 8.150467777986734
37 2 20.66756970473307 23.66161448422317 11.772897901536393
38 1 18.1874613401651 24.77075266317113 12.678505432423808
39 1 20.66756970473307 25.879890842119092 13.584112963311224
40 2 18.1874613401651 22.552476305275206 10.867290370648979
41 1 19.014164128354423 22.92218903159119 8.150467777986734
42 1 16.534055763786455 24.031327210539157 9.05607530887415
43 2 19.014164128354423 25.140465389487115 9.961682839761563
44 1 16.534055763786455 21.813050852643233 7.244860247099319
45 2 21.49427249292239 26.249603568435077 10.867290370648977
46 1 21.49427249292239 24.031327210539153 9.05607530887415
47 1 12.400541822839841 24.401039936855145 15.395328025086052
48 1 9.920433458271875 23.291901757907183 14.489720494198638
49 1 15.707352975597132 25.879890842119092 13.584112963311222
50 1 13.227244611029166 26.98902902106705 14.489720494198638
51 1 15.707352975597132 28.098167200015013 15.395328025086053
52 1 13.227244611029164 24.77075266317113 12.678505432423808
53 2 14.053947399218487 25.140465389487115 9.961682839761563
54 2 14.053947399218487 27.35874174738304 11.772897901536393
55 1 20.66756970473307 28.098167200015013 15.395328025086052
56 1 18.1874613401651 26.98902902106705 14.48972049419864
57 2 19.014164128354423 27.35874174738304 11.772897901536393
58 1 16.534055763786455 28.467879926331 12.678505432423808
59 1 19.014164128354423 29.577018105278963 13.584112963311224
60 2 16.534055763786455 26.249603568435077 10.867290370648979
61 1 21.494272492922388 30.68615628422692 14.489720494198636
62 1 21.494272492922384 28.467879926330998 12.678505432423808
63 1 14.053947399218487 29.577018105278963 13.58411296331122
64 1 14.053947399218487 31.795294463174884 15.395328025086052
65 1 19.014164128354423 31.795294463174884 15.39532802508605
66 1 16.534055763786455 30.68615628422692 14.489720494198638
67 1 0.0 2.2182763578959226 1.8112150617748295
68 2 2.4801083645679682 1.109138178947961 0.9056075308874146
69 2 4.960216729135936 -8.881784197001252e-16 -1.9455644930253686e-16
70 2 0.0 0.0 0.0
71 1 0.0 6.654829073687768 5.4336451853244885
72 1 2.4801083645679682 3.327414536843884 2.7168225926622442
73 1 2.4801083645679682 5.545690894739806 4.528037654437074
74 1 4.960216729135936 4.436552715791845 3.622430123549659
75 1 0.0 4.436552715791845 3.622430123549659
76 1 1.6534055763786455 5.915403621055794 1.811215061774829
77 2 7.440325093703903 1.109138178947961 0.9056075308874145
78 1 7.440325093703903 3.3274145368438837 2.7168225926622442
79 1 4.960216729135936 2.218276357895922 1.8112150617748293
80 2 4.133513940946613 4.806265442107832 0.9056075308874143
81 2 6.61362230551458 3.6971272631598704 -5.836693479076105e-16
82 2 1.6534055763786455 3.697127263159871 -3.8911289860507373e-16
83 1 1.6534055763786455 10.351956336847639 5.4336451853244885
84 1 7.440325093703903 5.545690894739806 4.528037654437074
85 1 4.960216729135936 6.654829073687768 5.4336451853244885
86 1 4.133513940946613 7.024541800003755 2.716822592662244
87 1 4.133513940946613 9.242818157899677 4.528037654437074
88 1 6.61362230551458 8.133679978951715 3.6224301235496585
89 1 1.6534055763786455 8.133679978951717 3.6224301235496585
90 1 3.306811152757291 9.612530884215664 1.8112150617748288
91 2 9.093730670082548 4.806265442107832 0.9056075308874142
92 1 9.093730670082547 7.024541800003755 2.716822592662244
93 1 6.61362230551458 5.915403621055793 1.8112150617748288
94 2 5.7869195173252574 8.503392705267704 0.9056075308874139
95 2 8.267027881893226 7.394254526319742 -9.727822465126844e-16
96 2 3.306811152757291 7.394254526319742 -7.782257972101475e-16
97 1 3.306811152757291 14.04908360000751 5.433645185324488
98 1 9.093730670082547 9.242818157899677 4.528037654437074
99 1 6.613622305514581 10.351956336847639 5.4336451853244885
100 1 5.786919517325258 10.721669063163626 2.7168225926622434
101 1 5.786919517325258 12.939945421059548 4.528037654437073
102 1 8.267027881893226 11.830807242111586 3.622430123549658
103 1 3.306811152757291 11.830807242111588 3.622430123549658
104 2 10.747136246461192 8.503392705267704 0.9056075308874137
105 1 10.747136246461192 10.721669063163626 2.7168225926622434
106 1 8.267027881893226 9.612530884215664 1.8112150617748286
107 1 19.840866916543746 31.05586901054291 16.300935555973467
108 1 10.747136246461192 12.939945421059548 4.528037654437073
109 1 8.267027881893226 14.04908360000751 5.433645185324488
110 1 19.840866916543746 35.492421726334754 19.923365679523123
111 1 22.32097528111171 32.16500718949087 17.20654308686088
112 1 22.320975281111714 34.383283547386796 19.01775814863571
113 1 24.80108364567968 33.27414536843884 18.112150617748295
114 1 19.840866916543746 33.27414536843884 18.112150617748295
115 1 21.49427249292239 34.752996273702784 16.300935555973464
116 1 27.281192010247644 32.16500718949087 17.20654308686088
117 1 24.80108364567968 31.05586901054291 16.300935555973464
118 2 22.320975281111714 36.60155990528272 20.82897321041054
119 1 21.49427249292239 39.18954898949463 19.923365679523123
120 1 27.281192010247644 34.383283547386796 19.017758148635707
121 2 27.28119201024765 36.60155990528272 20.82897321041054
122 1 24.801083645679682 35.492421726334754 19.923365679523126
123 1 23.974380857490356 35.86213445265074 17.20654308686088
124 1 23.97438085749036 38.080410810546674 19.01775814863571
125 1 26.454489222058328 36.97127263159871 18.112150617748295
126 1 21.49427249292239 36.97127263159871 18.112150617748295
127 1 23.147678069301037 38.450123536862655 16.300935555973464
128 1 28.934597586626296 35.86213445265074 17.20654308686088
129 1 26.454489222058328 34.752996273702784 16.300935555973464
130 2 23.97438085749036 40.29868716844259 20.82897321041054
131 1 23.147678069301037 42.8866762526545 19.923365679523123
132 1 28.934597586626296 38.08041081054667 19.017758148635707
133 2 28.934597586626296 40.29868716844259 20.82897321041054
134 1 26.454489222058328 39.18954898949463 19.923365679523126
135 1 25.627786433869 39.55926171581062 17.20654308686088
136 1 25.627786433869005 41.777538073706545 19.01775814863571
137 1 28.107894798436973 40.66839989475858 18.112150617748295
138 1 23.147678069301037 40.66839989475858 18.112150617748295
139 1 30.58800316300494 39.55926171581062 17.20654308686088
140 1 28.107894798436973 38.450123536862655 16.300935555973464
141 2 25.627786433869005 43.99581443160247 20.82897321041054
142 1 30.58800316300494 41.77753807370654 19.017758148635707
143 2 30.58800316300494 43.99581443160247 20.82897321041054
144 1 28.107894798436973 42.8866762526545 19.923365679523126
