#Lammps coordinate file for CSL - Axis: [1 1 1]  Angle: (1, 3) -> 59.99999999999999  Plane indices: [0 1 1]  z-position: [6.1836451853244885 18.550935555973464]  Repeats: 1 1 (3, 3) (black, white)  Fixed: 2.228  Boundary equiv: True
144 atoms

2 atom types

0.0 9.920433458271871 xlo xhi
0.0 11.091381789479609 ylo yhi
0.0 24.734580741297954 zlo zhi
4.9602167291359365 14.880650187407815 37.71069808423068 xy xz yz

Atoms

1 1 9.920433458271873 13.309658147375533 7.839252716211904
2 1 14.880650187407806 13.309658147375531 7.839252716211904
3 1 12.400541822839841 14.418796326323491 8.74486024709932
4 1 14.880650187407808 15.527934505271453 9.650467777986734
5 1 18.1874613401651 17.0067854105354 7.839252716211904
6 1 9.920433458271873 15.527934505271453 9.650467777986734
7 1 7.4403250937039065 16.637072684219415 10.55607530887415
8 2 9.920433458271873 17.746210863167377 11.461682839761563
9 1 7.4403250937039065 14.418796326323495 8.744860247099318
10 2 14.880650187407808 17.746210863167377 11.461682839761563
11 2 12.400541822839841 18.855349042115336 12.367290370648979
12 2 14.88065018740781 19.964487221063298 13.272897901536393
13 1 12.400541822839841 16.637072684219415 10.55607530887415
14 1 13.227244611029162 17.0067854105354 7.839252716211904
15 1 10.747136246461196 18.115923589483362 8.744860247099318
16 1 13.227244611029164 19.225061768431324 9.650467777986734
17 1 18.1874613401651 19.225061768431324 9.650467777986734
18 1 15.707352975597132 20.334199947379286 10.55607530887415
19 2 18.1874613401651 21.443338126327244 11.461682839761563
20 1 15.70735297559713 18.115923589483362 8.74486024709932
21 1 16.534055763786455 20.70391267369527 7.839252716211903
22 1 19.014164128354423 21.813050852643233 8.744860247099318
23 2 9.920433458271875 19.964487221063298 13.272897901536393
24 1 7.440325093703907 21.07362540001126 14.178505432423808
25 1 9.920433458271875 22.18276357895922 15.084112963311222
26 2 7.440325093703907 18.85534904211534 12.367290370648979
27 1 14.88065018740781 22.18276357895922 15.084112963311222
28 1 12.400541822839843 23.29190175790718 15.989720494198638
29 1 14.88065018740781 24.401039936855142 16.89532802508605
30 1 12.400541822839843 21.07362540001126 14.178505432423808
31 2 13.227244611029164 21.443338126327248 11.461682839761563
32 2 10.747136246461197 22.552476305275206 12.367290370648979
33 2 13.227244611029164 23.66161448422317 13.272897901536393
34 1 10.747136246461197 20.334199947379286 10.55607530887415
35 1 11.573839034650518 20.70391267369527 7.839252716211903
36 1 11.573839034650518 22.922189031591195 9.650467777986734
37 2 18.1874613401651 23.66161448422317 13.272897901536393
38 1 15.707352975597132 24.77075266317113 14.178505432423808
39 1 18.1874613401651 25.879890842119092 15.084112963311224
40 2 15.707352975597132 22.552476305275206 12.367290370648979
41 1 16.534055763786455 22.92218903159119 9.650467777986734
42 1 14.053947399218487 24.031327210539157 10.55607530887415
43 2 16.534055763786455 25.140465389487115 11.461682839761563
44 1 14.053947399218487 21.813050852643233 8.744860247099318
45 2 19.014164128354423 26.249603568435077 12.367290370648977
46 1 19.014164128354423 24.031327210539153 10.55607530887415
47 1 9.920433458271877 24.401039936855145 16.89532802508605
48 1 7.440325093703908 23.291901757907183 15.989720494198638
49 1 13.227244611029164 25.879890842119092 15.084112963311222
50 1 10.7471362464612 26.98902902106705 15.989720494198638
51 1 13.227244611029166 28.098167200015013 16.89532802508605
52 1 10.7471362464612 24.77075266317113 14.178505432423808
53 2 11.573839034650518 25.140465389487115 11.461682839761563
54 2 11.57383903465052 27.35874174738304 13.272897901536393
55 1 18.1874613401651 28.098167200015013 16.89532802508605
56 1 15.707352975597132 26.98902902106705 15.98972049419864
57 2 16.534055763786455 27.35874174738304 13.272897901536393
58 1 14.053947399218488 28.467879926331 14.178505432423808
59 1 16.534055763786455 29.577018105278963 15.084112963311224
60 2 14.053947399218487 26.249603568435077 12.367290370648979
61 1 19.014164128354423 30.68615628422692 15.989720494198636
62 1 19.01416412835442 28.467879926330998 14.178505432423808
63 1 11.57383903465052 29.577018105278963 15.08411296331122
64 1 11.57383903465052 31.795294463174884 16.89532802508605
65 1 16.534055763786455 31.795294463174884 16.895328025086048
66 1 14.053947399218488 30.68615628422692 15.989720494198638
67 1 0.0 2.2182763578959226 1.8112150617748295
68 2 2.4801083645679682 1.109138178947961 0.9056075308874147
69 2 4.960216729135936 -8.881784197001252e-16 -2.220446049250313e-16
70 2 0.0 0.0 0.0
71 1 0.0 6.654829073687768 6.1836451853244885
72 1 2.4801083645679682 3.327414536843884 2.7168225926622442
73 1 2.4801083645679682 5.545690894739806 4.528037654437074
74 1 4.960216729135936 4.436552715791845 3.622430123549659
75 1 0.0 4.436552715791845 3.622430123549659
76 1 1.6534055763786455 5.915403621055794 1.811215061774829
77 2 7.440325093703903 1.109138178947961 0.9056075308874146
78 1 7.440325093703903 3.3274145368438837 2.7168225926622442
79 1 4.960216729135936 2.218276357895922 1.8112150617748293
80 2 4.133513940946613 4.806265442107832 0.9056075308874144
81 2 6.61362230551458 3.6971272631598704 -4.440892098500626e-16
82 2 1.6534055763786455 3.697127263159871 -2.220446049250313e-16
83 1 1.6534055763786455 10.351956336847639 6.1836451853244885
84 1 7.440325093703903 5.545690894739806 4.528037654437074
85 1 4.960216729135936 6.654829073687768 6.1836451853244885
86 1 4.133513940946613 7.024541800003755 2.7168225926622442
87 1 4.133513940946613 9.242818157899677 4.528037654437074
88 1 6.61362230551458 8.133679978951715 3.622430123549659
89 1 1.6534055763786455 8.133679978951717 3.622430123549659
90 1 3.306811152757291 9.612530884215664 1.8112150617748288
91 2 9.093730670082548 4.806265442107832 0.9056075308874143
92 1 9.093730670082547 7.024541800003755 2.7168225926622442
93 1 6.61362230551458 5.915403621055793 1.8112150617748288
94 2 5.7869195173252574 8.503392705267704 0.905607530887414
95 2 8.267027881893226 7.394254526319742 -8.881784197001252e-16
96 2 3.306811152757291 7.394254526319742 -6.661338147750939e-16
97 1 3.306811152757291 14.04908360000751 6.183645185324488
98 1 9.093730670082547 9.242818157899677 4.528037654437074
99 1 6.613622305514581 10.351956336847639 6.1836451853244885
100 1 5.786919517325258 10.721669063163626 2.7168225926622434
101 1 5.786919517325258 12.939945421059548 4.528037654437073
102 1 8.267027881893226 11.830807242111586 3.622430123549658
103 1 3.306811152757291 11.830807242111588 3.622430123549658
104 2 10.747136246461192 8.503392705267704 0.9056075308874139
105 1 10.747136246461192 10.721669063163626 2.7168225926622434
106 1 8.267027881893226 9.612530884215664 1.8112150617748286
107 1 14.880650187407811 31.05586901054291 18.550935555973467
108 1 10.747136246461192 12.939945421059548 4.528037654437073
109 1 8.267027881893226 14.04908360000751 6.183645185324488
110 1 14.880650187407811 35.492421726334754 22.923365679523123
111 1 17.360758551975778 32.16500718949087 20.20654308686088
112 1 17.360758551975778 34.383283547386796 22.01775814863571
113 1 19.840866916543746 33.27414536843884 21.112150617748295
114 1 14.880650187407811 33.27414536843884 21.112150617748295
115 1 16.534055763786455 34.752996273702784 18.550935555973464
116 1 22.320975281111714 32.16500718949087 20.20654308686088
117 1 19.840866916543746 31.05586901054291 18.550935555973464
118 2 17.360758551975778 36.60155990528272 23.82897321041054
119 1 16.534055763786455 39.18954898949463 22.923365679523123
120 1 22.320975281111714 34.383283547386796 22.017758148635707
121 2 22.320975281111714 36.60155990528272 23.82897321041054
122 1 19.840866916543746 35.492421726334754 22.923365679523126
123 1 19.014164128354423 35.86213445265074 20.20654308686088
124 1 19.014164128354423 38.080410810546674 22.01775814863571
125 1 21.49427249292239 36.97127263159871 21.112150617748295
126 1 16.534055763786455 36.97127263159871 21.112150617748295
127 1 18.1874613401651 38.450123536862655 18.550935555973464
128 1 23.97438085749036 35.86213445265074 20.20654308686088
129 1 21.49427249292239 34.752996273702784 18.550935555973464
130 2 19.014164128354423 40.29868716844259 23.82897321041054
131 1 18.1874613401651 42.8866762526545 22.923365679523123
132 1 23.97438085749036 38.08041081054667 22.017758148635707
133 2 23.97438085749036 40.29868716844259 23.82897321041054
134 1 21.49427249292239 39.18954898949463 22.923365679523126
135 1 20.66756970473307 39.55926171581062 20.20654308686088
136 1 20.66756970473307 41.777538073706545 22.01775814863571
137 1 23.147678069301037 40.66839989475858 21.112150617748295
138 1 18.1874613401651 40.66839989475858 21.112150617748295
139 1 25.627786433869005 39.55926171581062 20.20654308686088
140 1 23.147678069301037 38.450123536862655 18.550935555973464
141 2 20.66756970473307 43.99581443160247 23.82897321041054
142 1 25.627786433869005 41.77753807370654 22.017758148635707
143 2 25.627786433869005 43.99581443160247 23.82897321041054
144 1 23.147678069301037 42.8866762526545 22.923365679523126
