#Lammps coordinate file for CSL - Axis: [1 1 1]  Angle: (1, 3) -> 59.99999999999999  Plane indices: [0 1 1]  z-position: [6.1836451853244885 18.550935555973464]  Repeats: 1 1 (3, 3) (black, white)  Fixed: 2.228  Boundary equiv: True
144 atoms

2 atom types

0.0 9.920433458271871 xlo xhi
0.0 11.091381789479609 ylo yhi
0.0 24.734580741297954 zlo zhi
4.9602167291359365 8.060352184845902 30.778584465805924 xy xz yz

Atoms

1 1 6.5102844569909175 9.843601338163154 7.839252716211904
2 1 11.47050118612685 9.843601338163154 7.839252716211904
3 1 8.990392821558885 10.952739517111116 8.74486024709932
4 1 11.470501186126851 12.061877696059078 9.650467777986734
5 1 14.777312338884142 13.540728601323025 7.839252716211904
6 1 6.510284456990917 12.061877696059078 9.650467777986734
7 1 4.03017609242295 13.17101587500704 10.55607530887415
8 2 6.5102844569909175 14.280154053954998 11.461682839761563
9 1 4.03017609242295 10.952739517111116 8.744860247099318
10 2 11.470501186126851 14.280154053954998 11.461682839761563
11 2 8.990392821558885 15.38929223290296 12.367290370648979
12 2 11.470501186126853 16.498430411850922 13.272897901536393
13 1 8.990392821558885 13.17101587500704 10.55607530887415
14 1 9.817095609748206 13.540728601323025 7.839252716211904
15 1 7.33698724518024 14.649866780270987 8.744860247099318
16 1 9.817095609748208 15.759004959218949 9.650467777986734
17 1 14.777312338884142 15.759004959218945 9.650467777986734
18 1 12.297203974316176 16.868143138166907 10.55607530887415
19 2 14.777312338884144 17.97728131711487 11.461682839761563
20 1 12.297203974316174 14.649866780270987 8.74486024709932
21 1 13.123906762505499 17.237855864482896 7.839252716211903
22 1 15.604015127073467 18.346994043430858 8.744860247099318
23 2 6.510284456990918 16.498430411850922 13.272897901536393
24 1 4.030176092422951 17.607568590798884 14.178505432423808
25 1 6.510284456990918 18.716706769746846 15.084112963311222
26 2 4.030176092422951 15.38929223290296 12.367290370648979
27 1 11.470501186126853 18.716706769746846 15.084112963311222
28 1 8.990392821558887 19.825844948694805 15.989720494198638
29 1 11.470501186126853 20.934983127642766 16.89532802508605
30 1 8.990392821558887 17.607568590798884 14.178505432423808
31 2 9.817095609748208 17.97728131711487 11.461682839761563
32 2 7.336987245180241 19.08641949606283 12.367290370648979
33 2 9.817095609748208 20.195557675010793 13.272897901536393
34 1 7.336987245180241 16.86814313816691 10.55607530887415
35 1 8.163690033369562 17.237855864482896 7.839252716211903
36 1 8.163690033369562 19.45613222237882 9.650467777986734
37 2 14.777312338884144 20.195557675010793 13.272897901536393
38 1 12.297203974316176 21.304695853958755 14.178505432423808
39 1 14.777312338884144 22.413834032906717 15.084112963311224
40 2 12.297203974316176 19.08641949606283 12.367290370648979
41 1 13.123906762505499 19.456132222378816 9.650467777986734
42 1 10.64379839793753 20.56527040132678 10.55607530887415
43 2 13.123906762505499 21.67440858027474 11.461682839761563
44 1 10.64379839793753 18.346994043430858 8.744860247099318
45 2 15.604015127073467 22.783546759222702 12.367290370648977
46 1 15.604015127073467 20.565270401326778 10.55607530887415
47 1 6.510284456990919 20.93498312764277 16.89532802508605
48 1 4.030176092422952 19.825844948694808 15.989720494198638
49 1 9.817095609748208 22.413834032906717 15.084112963311222
50 1 7.336987245180243 23.522972211854675 15.989720494198638
51 1 9.81709560974821 24.632110390802637 16.89532802508605
52 1 7.336987245180242 21.304695853958755 14.178505432423808
53 2 8.163690033369562 21.67440858027474 11.461682839761563
54 2 8.163690033369564 23.892684938170664 13.272897901536393
55 1 14.777312338884144 24.632110390802637 16.89532802508605
56 1 12.297203974316176 23.522972211854675 15.98972049419864
57 2 13.123906762505499 23.892684938170664 13.272897901536393
58 1 10.643798397937532 25.001823117118626 14.178505432423808
59 1 13.1239067625055 26.110961296066588 15.084112963311224
60 2 10.64379839793753 22.783546759222702 12.367290370648979
61 1 15.604015127073465 27.220099475014546 15.989720494198636
62 1 15.604015127073463 25.001823117118622 14.178505432423808
63 1 8.163690033369564 26.110961296066588 15.08411296331122
64 1 8.163690033369564 28.329237653962508 16.89532802508605
65 1 13.1239067625055 28.329237653962508 16.895328025086048
66 1 10.643798397937532 27.220099475014546 15.989720494198638
67 1 0.0 2.2182763578959226 1.8112150617748295
68 2 2.480108364567968 1.109138178947961 0.9056075308874145
69 2 4.960216729135936 -4.440892098500626e-16 -2.220446049250313e-16
70 2 0.0 0.0 0.0
71 1 0.0 6.654829073687768 6.1836451853244885
72 1 2.480108364567968 3.327414536843884 2.7168225926622442
73 1 2.4801083645679682 5.545690894739806 4.528037654437074
74 1 4.960216729135936 4.436552715791845 3.622430123549659
75 1 0.0 4.436552715791845 3.622430123549659
76 1 1.6534055763786455 5.915403621055794 1.811215061774829
77 2 7.440325093703903 1.109138178947961 0.9056075308874144
78 1 7.440325093703903 3.3274145368438837 2.7168225926622442
79 1 4.960216729135936 2.218276357895922 1.8112150617748293
80 2 4.133513940946613 4.806265442107832 0.9056075308874142
81 2 6.61362230551458 3.6971272631598704 -6.661338147750939e-16
82 2 1.6534055763786455 3.697127263159871 -4.440892098500626e-16
83 1 1.6534055763786455 10.351956336847639 6.1836451853244885
84 1 7.440325093703903 5.545690894739806 4.528037654437074
85 1 4.960216729135936 6.654829073687768 6.1836451853244885
86 1 4.133513940946613 7.024541800003755 2.7168225926622434
87 1 4.133513940946613 9.242818157899677 4.528037654437074
88 1 6.61362230551458 8.133679978951715 3.622430123549658
89 1 1.6534055763786455 8.133679978951717 3.622430123549658
90 1 3.3068111527572905 9.612530884215664 1.8112150617748288
91 2 9.093730670082548 4.806265442107832 0.9056075308874141
92 1 9.093730670082547 7.024541800003755 2.7168225926622434
93 1 6.61362230551458 5.915403621055793 1.8112150617748288
94 2 5.7869195173252574 8.503392705267704 0.9056075308874137
95 2 8.267027881893226 7.394254526319742 -1.1102230246251565e-15
96 2 3.3068111527572905 7.394254526319742 -8.881784197001252e-16
97 1 3.306811152757291 14.04908360000751 6.183645185324488
98 1 9.093730670082547 9.242818157899677 4.528037654437074
99 1 6.613622305514581 10.351956336847639 6.1836451853244885
100 1 5.786919517325258 10.721669063163628 2.7168225926622434
101 1 5.786919517325258 12.939945421059548 4.528037654437073
102 1 8.267027881893226 11.830807242111586 3.622430123549658
103 1 3.306811152757291 11.83080724211159 3.622430123549658
104 2 10.747136246461192 8.503392705267704 0.9056075308874136
105 1 10.747136246461192 10.721669063163628 2.7168225926622434
106 1 8.267027881893226 9.612530884215664 1.8112150617748286
107 1 8.060352184845899 24.12375539211816 18.550935555973467
108 1 10.747136246461192 12.939945421059548 4.528037654437073
109 1 8.267027881893226 14.04908360000751 6.183645185324488
110 1 8.060352184845899 28.560308107910004 22.923365679523123
111 1 10.540460549413865 25.23289357106612 20.20654308686088
112 1 10.540460549413867 27.451169928962045 22.01775814863571
113 1 13.020568913981833 26.342031750014083 21.112150617748295
114 1 8.060352184845899 26.342031750014083 21.112150617748295
115 1 9.713757761224542 27.82088265527803 18.550935555973464
116 1 15.500677278549801 25.23289357106612 20.20654308686088
117 1 13.020568913981833 24.12375539211816 18.550935555973464
118 2 10.540460549413867 29.669446286857966 23.82897321041054
119 1 9.713757761224544 32.257435371069874 22.923365679523123
120 1 15.500677278549801 27.45116992896204 22.017758148635707
121 2 15.500677278549801 29.669446286857966 23.82897321041054
122 1 13.020568913981833 28.560308107910004 22.923365679523126
123 1 12.19386612579251 28.930020834225992 20.20654308686088
124 1 12.193866125792512 31.148297192121916 22.01775814863571
125 1 14.673974490360479 30.039159013173954 21.112150617748295
126 1 9.713757761224544 30.039159013173954 21.112150617748295
127 1 11.367163337603188 31.5180099184379 18.550935555973464
128 1 17.154082854928447 28.930020834225992 20.20654308686088
129 1 14.673974490360479 27.82088265527803 18.550935555973464
130 2 12.193866125792512 33.36657355001783 23.82897321041054
131 1 11.36716333760319 35.95456263422974 22.923365679523123
132 1 17.154082854928447 31.148297192121913 22.017758148635707
133 2 17.154082854928447 33.36657355001783 23.82897321041054
134 1 14.673974490360479 32.257435371069874 22.923365679523126
135 1 13.847271702171156 32.62714809738586 20.20654308686088
136 1 13.847271702171158 34.84542445528178 22.01775814863571
137 1 16.327380066739124 33.73628627633382 21.112150617748295
138 1 11.36716333760319 33.73628627633382 21.112150617748295
139 1 18.807488431307092 32.62714809738586 20.20654308686088
140 1 16.327380066739124 31.5180099184379 18.550935555973464
141 2 13.847271702171158 37.063700813177704 23.82897321041054
142 1 18.807488431307092 34.84542445528178 22.017758148635707
143 2 18.807488431307092 37.063700813177704 23.82897321041054
144 1 16.327380066739124 35.95456263422974 22.923365679523126
