ITEM: TIMESTEP
110089
ITEM: NUMBER OF ATOMS
144
ITEM: BOX BOUNDS xy xz yz pp pp pp
0.0000000000000000e+00 2.4801083645679686e+01 4.9602167291359365e+00
0.0000000000000000e+00 5.9893461663189896e+01 9.9204334582718783e+00
0.0000000000000000e+00 2.4734580741297954e+01 4.8802079873710284e+01
ITEM: ATOMS id type x y z c_peatom
69 2 4.96022 0 0 -3.34634
70 2 0 0 0 -3.37165
81 2 6.61362 3.69713 0 -3.35189
82 2 11.5738 3.69713 0 -3.35354
80 2 4.13351 4.80627 0.905608 -3.37597
86 1 4.19082 6.99017 2.82845 -3.2404
76 1 1.66787 5.83105 1.90277 -3.34467
89 1 1.7399 7.95419 3.66532 -3.17158
91 2 9.09373 4.80627 0.905608 -3.32507
92 1 9.11442 6.892 2.87268 -3.30548
93 1 6.64574 5.89715 1.92871 -3.33627
94 2 5.78692 8.50339 0.905608 -3.33236
95 2 8.26703 7.39425 0 -3.34261
87 1 6.63093 8.06741 3.89332 -3.1886
96 2 13.2272 7.39425 0 -3.36133
104 2 10.7471 8.50339 0.905608 -3.3671
68 2 7.44033 12.2005 0.905608 -3.36891
100 1 5.82494 10.6369 2.7999 -3.29995
102 1 8.35331 11.7116 3.87047 -3.18885
106 1 8.29512 9.57012 1.94504 -3.36739
67 1 5.02036 13.3121 1.92835 -3.38128
101 1 5.87107 12.6355 4.73652 -3.15156
90 1 13.2407 9.59236 1.86815 -3.3294
103 1 13.3022 11.7754 3.69978 -3.27045
79 1 9.96707 13.274 1.91854 -3.35999
77 2 12.4005 12.2005 0.905608 -3.36004
105 1 10.8074 10.6755 2.857 -3.36847
72 1 7.51082 14.3871 2.88795 -3.27203
73 1 7.71884 16.6804 5.03927 -3.11779
74 1 10.0326 15.4897 3.76095 -3.11748
78 1 12.518 14.4144 2.88039 -3.3496
84 1 12.5468 16.5839 5.0411 -3.13708
75 1 15.0703 15.487 4.00534 -3.31657
88 1 14.2544 20.1082 4.69159 -3.16737
108 1 10.8382 12.8124 4.82763 -3.0139
97 1 3.48816 13.7792 5.71647 -3.11862
35 1 4.05806 15.5088 7.72865 -3.17496
109 1 6.43375 14.4808 6.63633 -3.15224
21 1 9.0587 15.3141 7.53284 -3.02273
71 1 5.19854 17.6501 6.14482 -3.20289
85 1 10.0919 17.95 6.3801 -3.05071
1 1 7.48357 18.8599 7.53126 -3.15534
6 1 7.49099 21.091 9.54072 -3.30271
98 1 7.09371 21.1089 5.48825 -3.10021
83 1 10.0215 20.9418 5.55955 -3.08889
3 1 9.993 20.0083 8.49348 -3.2596
2 1 12.6114 18.767 7.53293 -3.19004
4 1 12.3832 21.1058 9.49993 -3.37594
99 1 12.9349 21.5257 6.64357 -3.11023
14 1 10.5992 22.787 7.57004 -3.17052
9 1 14.9074 19.9586 8.63674 -3.25473
5 1 15.6274 22.5101 7.57905 -3.04471
15 1 8.1757 23.7623 8.49973 -3.18918
44 1 11.5427 27.494 8.64023 -3.31354
16 1 10.6982 24.8623 9.49735 -3.38587
20 1 13.1398 23.7366 8.54389 -3.23721
22 1 16.4513 27.429 8.63702 -3.18294
17 1 15.6519 24.7752 9.53619 -3.26302
36 1 9.07359 28.5276 9.65266 -3.32097
41 1 14.0312 28.5325 9.51252 -3.35321
7 1 4.95048 22.1906 10.455 -3.40392
13 1 9.92844 22.2288 10.4444 -3.34229
8 2 7.44033 23.2919 11.4617 -3.36872
34 1 8.24352 25.8855 10.4743 -3.37271
11 2 9.92043 24.401 12.3673 -3.35188
10 2 12.4005 23.2919 11.4617 -3.35423
18 1 13.2113 25.9153 10.4378 -3.38458
31 2 10.7471 26.989 11.4617 -3.36261
26 2 14.8807 24.401 12.3673 -3.36384
19 2 15.7074 26.989 11.4617 -3.37483
32 2 8.26703 28.0982 12.3673 -3.29652
53 2 9.09373 30.6862 11.4617 -3.30847
33 2 10.7471 29.2073 13.2729 -3.27007
38 1 13.1848 30.3116 14.2418 -3.33541
40 2 13.2272 28.0982 12.3673 -3.35543
42 1 11.5826 29.6152 10.4933 -3.37769
43 2 14.0539 30.6862 11.4617 -3.35086
60 2 11.5738 31.7953 12.3673 -3.34955
37 2 15.7074 29.2073 13.2729 -3.27055
45 2 16.5341 31.7953 12.3673 -3.29078
46 1 16.5116 29.6166 10.4495 -3.36317
54 2 9.09373 32.9044 13.2729 -3.23531
23 2 12.4005 36.6016 13.2729 -3.36619
57 2 14.0539 32.9044 13.2729 -3.31836
58 1 11.5422 33.9893 14.1682 -3.30287
12 2 17.3608 36.6016 13.2729 -3.34145
62 1 16.5279 33.8586 14.375 -3.29187
30 1 14.8956 37.6935 14.376 -3.29493
24 1 19.7965 37.731 14.3087 -3.36306
52 1 7.41815 30.8705 15.1361 -3.12979
49 1 10.504 31.3553 15.1602 -3.14864
39 1 14.5876 32.0931 15.909 -3.27091
63 1 9.07556 35.0384 15.328 -3.21322
59 1 14.0113 34.9499 15.2061 -3.33834
66 1 11.5661 36.1569 16.074 -3.29006
56 1 12.027 33.2385 16.7744 -3.17496
61 1 16.5096 36.0179 16.3217 -3.17984
64 1 9.03535 37.4586 17.1895 -3.0653
65 1 14.0595 36.9793 17.1649 -3.21222
25 1 12.415 38.8619 15.2477 -3.25801
47 1 12.4285 40.9443 18.0054 -3.23778
140 1 11.6488 38.1457 18.0244 -3.15823
139 1 14.1627 38.7977 19.2192 -3.19545
28 1 14.7912 39.9349 16.4702 -3.16515
127 1 16.8194 39.1218 18.4665 -3.07687
27 1 17.3191 38.8906 15.3315 -3.274
48 1 19.9775 40.2207 16.2079 -3.23438
50 1 11.9042 43.9449 17.1527 -3.12986
51 1 14.4299 44.5353 18.1045 -3.13704
115 1 11.7486 45.9714 19.0749 -3.19949
29 1 17.4435 41.5182 17.0938 -3.18164
117 1 15.0645 41.6614 19.0115 -3.19185
107 1 19.8298 42.2309 18.7265 -3.27824
55 1 19.3011 45.1342 17.9857 -3.28414
116 1 17.328 43.4098 19.6395 -3.28564
123 1 14.1755 47.0114 19.8793 -3.19143
129 1 16.7202 46.2167 18.8435 -3.26255
135 1 10.6987 39.7155 20.0795 -3.15277
111 1 12.4388 43.2168 19.9379 -3.33144
114 1 9.94142 44.363 20.81 -3.34553
112 1 12.4067 45.5278 21.8495 -3.36563
113 1 14.9139 44.369 20.9095 -3.31553
120 1 17.3801 45.5016 21.7835 -3.33249
110 1 9.93831 46.5928 22.787 -3.37009
118 2 12.4005 47.6929 23.829 -3.35149
124 1 14.0745 49.179 21.8884 -3.27715
119 1 11.5948 50.3197 22.8276 -3.30718
126 1 11.5894 48.2806 20.8211 -3.19236
128 1 19.1172 47.0713 19.9936 -3.27692
122 1 14.907 46.5985 22.767 -3.36212
121 2 17.3608 47.6929 23.829 -3.35201
125 1 16.6335 48.2003 20.8737 -3.31018
132 1 19.0394 49.2145 21.9584 -3.29723
134 1 16.5221 50.3013 22.8443 -3.3687
138 1 13.0978 51.7781 20.7442 -3.13647
130 2 14.0539 51.3901 23.829 -3.35553
131 1 13.2111 53.9911 22.7546 -3.33123
137 1 18.1733 51.7928 21.0067 -3.3035
133 2 19.0142 51.3901 23.829 -3.34721
136 1 15.6636 52.9203 21.9037 -3.32982
141 2 15.7074 55.0872 23.829 -3.33125
144 1 18.1785 54.0175 22.824 -3.36144
142 1 20.6641 52.8914 21.8681 -3.27206
143 2 20.6676 55.0872 23.829 -3.33981
