ITEM: TIMESTEP
100000
ITEM: NUMBER OF ATOMS
144
ITEM: BOX BOUNDS xy xz yz pp pp pp
0.0000000000000000e+00 2.1700948189969726e+01 4.9602167291359365e+00
0.0000000000000000e+00 5.0188502597395242e+01 6.8202980025619171e+00
0.0000000000000000e+00 2.1734580741297954e+01 3.9097120807915630e+01
ITEM: ATOMS id type x y z c_peatom
69 2 4.96022 0 0 -3.32872
70 2 0 0 0 -3.32872
81 2 6.61362 3.69713 0 -3.3613
82 2 11.5738 3.69713 0 -3.3613
80 2 4.13351 4.80627 0.905608 -3.35381
86 1 4.05582 6.86272 2.71335 -3.32052
88 1 6.37687 7.94626 3.6058 -3.26951
91 2 9.09373 4.80627 0.905608 -3.35381
92 1 9.01604 6.86272 2.71335 -3.32052
93 1 6.59454 5.81628 1.80974 -3.34917
94 2 5.78692 8.50339 0.905608 -3.342
95 2 8.26703 7.39425 0 -3.3613
104 2 10.7471 8.50339 0.905608 -3.342
76 1 11.5548 5.81628 1.80974 -3.34917
89 1 11.3371 7.94626 3.6058 -3.26951
96 2 13.2272 7.39425 0 -3.3613
103 1 3.38725 11.474 3.62814 -3.3638
97 1 3.48254 13.5193 5.39037 -3.33208
68 2 7.44033 12.2005 0.905608 -3.34731
79 1 9.93488 13.2254 1.75183 -3.3496
100 1 5.83392 10.6382 2.53499 -3.24567
101 1 5.93805 12.6806 4.38439 -3.26855
102 1 8.34747 11.474 3.62814 -3.3638
105 1 10.7941 10.6382 2.53499 -3.24567
106 1 8.27964 9.48427 1.82063 -3.34111
109 1 8.44276 13.5193 5.39037 -3.33208
99 1 5.66198 10.1671 5.10671 -3.09317
83 1 10.6222 10.1671 5.10671 -3.09317
108 1 10.8983 12.6806 4.38439 -3.26855
67 1 14.8951 13.2254 1.75183 -3.3496
77 2 12.4005 12.2005 0.905608 -3.34731
90 1 13.2399 9.48427 1.82063 -3.34111
75 1 5.09175 15.2439 3.55856 -3.3075
71 1 5.34761 17.157 5.39742 -3.23517
72 1 7.53391 14.2363 2.66555 -3.31932
73 1 7.67874 16.2215 4.51571 -3.29847
74 1 10.052 15.2439 3.55856 -3.3075
85 1 10.3078 17.157 5.39742 -3.23517
78 1 12.4941 14.2363 2.66555 -3.31932
84 1 12.639 16.2215 4.51571 -3.29847
87 1 8.60883 19.7144 4.82767 -3.18138
98 1 13.569 19.7144 4.82767 -3.18138
7 1 3.43346 17.3582 9.24356 -3.24701
9 1 3.50022 15.2942 7.36405 -3.27127
1 1 5.97966 14.4421 6.37584 -3.33098
3 1 8.46044 15.2942 7.36405 -3.27127
6 1 5.92998 16.5011 8.11983 -3.3631
13 1 8.39367 17.3582 9.24356 -3.24701
14 1 8.19899 17.8052 6.69009 -3.06519
2 1 10.9399 14.4421 6.37584 -3.33098
4 1 10.8902 16.5011 8.11983 -3.3631
5 1 13.1592 17.8052 6.69009 -3.06519
8 2 5.89026 18.4394 9.96168 -3.33521
10 2 10.8505 18.4394 9.96168 -3.33521
15 1 6.19798 19.3434 6.91781 -3.17466
16 1 8.94607 20.0427 8.14428 -3.26597
31 2 9.19707 22.1365 9.96168 -3.33729
34 1 6.62782 21.1075 9.06426 -3.33854
35 1 7.8443 21.897 6.35174 -3.25223
17 1 13.9063 20.0427 8.14428 -3.26597
18 1 11.588 21.1075 9.06426 -3.33854
19 2 14.1573 22.1365 9.96168 -3.33729
20 1 11.1582 19.3434 6.91781 -3.17466
21 1 12.8045 21.897 6.35174 -3.25223
44 1 10.1954 22.8417 7.26309 -3.30157
36 1 7.6346 23.7914 8.20323 -3.31016
42 1 10.0765 24.8506 9.09925 -3.32385
53 2 7.54366 25.8337 9.96168 -3.36457
22 1 15.1556 22.8417 7.26309 -3.30157
41 1 12.5948 23.7914 8.20323 -3.31016
43 2 12.5039 25.8337 9.96168 -3.36457
46 1 15.0367 24.8506 9.09925 -3.32385
26 2 3.41015 19.5486 10.8673 -3.34704
11 2 8.37037 19.5486 10.8673 -3.34704
32 2 6.71696 23.2457 10.8673 -3.33918
33 2 9.19707 24.3548 11.7729 -3.36457
49 1 9.10613 26.3971 13.5314 -3.31016
52 1 6.66421 25.3379 12.6353 -3.32385
60 2 10.0238 26.9428 10.8673 -3.33918
50 1 6.54535 27.3468 14.4715 -3.30157
37 2 14.1573 24.3548 11.7729 -3.36457
38 1 11.6244 25.3379 12.6353 -3.32385
39 1 14.0663 26.3971 13.5314 -3.31016
40 2 11.6772 23.2457 10.8673 -3.33918
45 2 14.984 26.9428 10.8673 -3.33918
56 1 11.5056 27.3468 14.4715 -3.30157
51 1 8.89643 28.2915 15.3828 -3.25223
54 2 7.54366 28.052 11.7729 -3.33729
58 1 10.1129 29.081 12.6703 -3.33854
63 1 7.79466 30.1458 13.5903 -3.26597
66 1 10.5428 30.8451 14.8168 -3.17466
12 2 15.8107 31.7491 11.7729 -3.33521
23 2 10.8505 31.7491 11.7729 -3.33521
55 1 13.8566 28.2915 15.3828 -3.25223
57 2 12.5039 28.052 11.7729 -3.33729
59 1 12.7549 30.1458 13.5903 -3.26597
61 1 15.503 30.8451 14.8168 -3.17466
62 1 15.0731 29.081 12.6703 -3.33854
64 1 8.54174 32.3833 15.0445 -3.06519
25 1 10.8108 33.6874 13.6147 -3.3631
47 1 10.7611 35.7464 15.3587 -3.33098
27 1 15.771 33.6874 13.6147 -3.3631
28 1 13.2405 34.8943 14.3705 -3.27127
29 1 15.7213 35.7464 15.3587 -3.33098
30 1 13.3073 32.8303 12.491 -3.24701
65 1 13.502 32.3833 15.0445 -3.06519
24 1 18.2675 32.8303 12.491 -3.24701
48 1 18.2007 34.8943 14.3705 -3.27127
135 1 8.1319 30.4741 16.9069 -3.18138
139 1 13.0921 30.4741 16.9069 -3.18138
111 1 9.06199 33.967 17.2189 -3.29847
112 1 9.20683 35.9522 19.069 -3.31932
113 1 11.649 34.9446 18.176 -3.3075
116 1 14.0222 33.967 17.2189 -3.29847
117 1 11.3931 33.0315 16.3372 -3.23517
120 1 14.167 35.9522 19.069 -3.31932
107 1 16.3533 33.0315 16.3372 -3.23517
114 1 16.6092 34.9446 18.176 -3.3075
110 1 6.80585 36.9631 19.9827 -3.3496
118 2 9.30041 37.988 20.829 -3.34731
119 1 8.46109 40.7042 19.9139 -3.34111
123 1 10.8027 37.5079 17.3502 -3.26855
129 1 13.2582 36.6692 16.3442 -3.33208
127 1 11.0788 40.0214 16.6279 -3.09317
121 2 14.2606 37.988 20.829 -3.34731
122 1 11.7661 36.9631 19.9827 -3.3496
124 1 10.9068 39.5503 19.1996 -3.24567
125 1 13.3535 38.7145 18.1064 -3.3638
128 1 15.7629 37.5079 17.3502 -3.26855
132 1 15.867 39.5503 19.1996 -3.24567
134 1 13.4213 40.7042 19.9139 -3.34111
140 1 16.039 40.0214 16.6279 -3.09317
115 1 18.2184 36.6692 16.3442 -3.33208
126 1 18.3137 38.7145 18.1064 -3.3638
131 1 10.1462 44.3722 19.9248 -3.34917
138 1 10.3639 42.2422 18.1288 -3.26951
130 2 10.9538 41.6851 20.829 -3.342
133 2 15.914 41.6851 20.829 -3.342
136 1 12.6849 43.3258 19.0212 -3.32052
137 1 15.3241 42.2422 18.1288 -3.26951
141 2 12.6072 45.3822 20.829 -3.35381
144 1 15.1064 44.3722 19.9248 -3.34917
142 1 17.6451 43.3258 19.0212 -3.32052
143 2 17.5674 45.3822 20.829 -3.35381
