#Lammps coordinate file for CSL - Axis: [1 1 1]  Angle: (1, 3) -> 59.99999999999999  Plane indices: [0 1 1]  z-position: [5.1836451853244885 15.550935555973464]  Repeats: 1 1 (3, 3) (black, white)  Fixed: 2.228  Boundary equiv: True
144 atoms

2 atom types

0.0 9.920433458271871 xlo xhi
0.0 11.091381789479609 ylo yhi
0.0 20.734580741297954 zlo zhi
4.9602167291359365 9.920433458271878 48.802079873710284 xy xz yz

Atoms

1 1 7.440325093703906 18.855349042115336 5.839252716211904
2 1 12.400541822839838 18.855349042115336 5.839252716211904
3 1 9.920433458271873 19.964487221063298 6.74486024709932
4 1 12.40054182283984 21.07362540001126 7.650467777986734
5 1 15.70735297559713 22.552476305275206 5.839252716211904
6 1 7.440325093703905 21.07362540001126 7.650467777986734
7 1 4.960216729135938 22.18276357895922 8.55607530887415
8 2 7.440325093703906 23.291901757907183 9.461682839761563
9 1 4.960216729135938 19.9644872210633 6.744860247099319
10 2 12.40054182283984 23.291901757907183 9.461682839761563
11 2 9.920433458271873 24.401039936855142 10.367290370648979
12 2 12.400541822839841 25.510178115803104 11.272897901536393
13 1 9.920433458271873 22.18276357895922 8.55607530887415
14 1 10.747136246461194 22.552476305275206 5.839252716211904
15 1 8.267027881893227 23.66161448422317 6.744860247099319
16 1 10.747136246461196 24.77075266317113 7.650467777986734
17 1 15.70735297559713 24.77075266317113 7.650467777986734
18 1 13.227244611029164 25.87989084211909 8.55607530887415
19 2 15.707352975597132 26.98902902106705 9.461682839761563
20 1 13.227244611029162 23.66161448422317 6.74486024709932
21 1 14.053947399218487 26.249603568435077 5.839252716211903
22 1 16.534055763786455 27.35874174738304 6.744860247099318
23 2 7.4403250937039065 25.510178115803104 11.272897901536393
24 1 4.960216729135939 26.619316294751066 12.178505432423808
25 1 7.4403250937039065 27.728454473699028 13.084112963311222
26 2 4.960216729135939 24.401039936855142 10.367290370648979
27 1 12.400541822839841 27.728454473699028 13.084112963311222
28 1 9.920433458271875 28.837592652646986 13.989720494198638
29 1 12.400541822839841 29.946730831594948 14.895328025086053
30 1 9.920433458271875 26.619316294751066 12.178505432423808
31 2 10.747136246461196 26.989029021067054 9.461682839761563
32 2 8.26702788189323 28.098167200015013 10.367290370648979
33 2 10.747136246461196 29.207305378962975 11.272897901536393
34 1 8.26702788189323 25.879890842119092 8.55607530887415
35 1 9.09373067008255 26.249603568435077 5.839252716211903
36 1 9.09373067008255 28.467879926331 7.650467777986734
37 2 15.707352975597132 29.207305378962975 11.272897901536393
38 1 13.227244611029164 30.316443557910937 12.178505432423808
39 1 15.707352975597132 31.4255817368589 13.084112963311224
40 2 13.227244611029164 28.098167200015013 10.367290370648979
41 1 14.053947399218487 28.467879926330998 7.650467777986734
42 1 11.573839034650518 29.577018105278963 8.55607530887415
43 2 14.053947399218487 30.68615628422692 9.461682839761563
44 1 11.573839034650518 27.35874174738304 6.744860247099319
45 2 16.534055763786455 31.795294463174884 10.367290370648977
46 1 16.534055763786455 29.57701810527896 8.55607530887415
47 1 7.440325093703907 29.94673083159495 14.895328025086052
48 1 4.96021672913594 28.83759265264699 13.989720494198638
49 1 10.747136246461196 31.4255817368589 13.084112963311222
50 1 8.267027881893231 32.53471991580686 13.989720494198638
51 1 10.747136246461197 33.64385809475482 14.895328025086053
52 1 8.267027881893231 30.316443557910937 12.178505432423808
53 2 9.09373067008255 30.68615628422692 9.461682839761563
54 2 9.093730670082552 32.90443264212284 11.272897901536393
55 1 15.707352975597132 33.64385809475482 14.895328025086052
56 1 13.227244611029164 32.53471991580686 13.98972049419864
57 2 14.053947399218487 32.90443264212284 11.272897901536393
58 1 11.57383903465052 34.01357082107081 12.178505432423808
59 1 14.053947399218488 35.12270900001877 13.084112963311224
60 2 11.573839034650518 31.795294463174884 10.367290370648979
61 1 16.534055763786455 36.23184717896673 13.989720494198636
62 1 16.53405576378645 34.0135708210708 12.178505432423808
63 1 9.093730670082552 35.12270900001877 13.08411296331122
64 1 9.093730670082552 37.34098535791469 14.895328025086052
65 1 14.053947399218488 37.34098535791469 14.89532802508605
66 1 11.57383903465052 36.23184717896673 13.989720494198638
67 1 0.0 2.218276357895922 1.811215061774829
68 2 2.480108364567968 1.109138178947962 0.9056075308874146
69 2 4.960216729135936 0.0 -2.220446049250313e-16
70 2 0.0 0.0 0.0
71 1 0.0 6.654829073687768 5.1836451853244885
72 1 2.480108364567968 3.327414536843884 2.7168225926622442
73 1 2.4801083645679682 5.545690894739806 4.528037654437074
74 1 4.960216729135936 4.436552715791845 3.6224301235496585
75 1 0.0 4.436552715791845 3.6224301235496585
76 1 1.6534055763786455 5.915403621055794 1.811215061774829
77 2 7.440325093703903 1.109138178947962 0.9056075308874144
78 1 7.440325093703903 3.327414536843884 2.7168225926622442
79 1 4.960216729135936 2.218276357895922 1.811215061774829
80 2 4.133513940946613 4.806265442107832 0.9056075308874144
81 2 6.61362230551458 3.697127263159871 -6.106226635438361e-16
82 2 1.6534055763786455 3.697127263159871 -3.885780586188048e-16
83 1 1.6534055763786455 10.351956336847639 5.1836451853244885
84 1 7.440325093703903 5.545690894739806 4.528037654437074
85 1 4.960216729135936 6.654829073687768 5.1836451853244885
86 1 4.133513940946613 7.024541800003755 2.716822592662244
87 1 4.133513940946613 9.242818157899677 4.528037654437074
88 1 6.61362230551458 8.133679978951715 3.6224301235496585
89 1 1.6534055763786455 8.133679978951717 3.6224301235496585
90 1 3.3068111527572905 9.612530884215664 1.8112150617748286
91 2 9.093730670082548 4.806265442107832 0.9056075308874142
92 1 9.093730670082547 7.024541800003755 2.716822592662244
93 1 6.61362230551458 5.915403621055793 1.8112150617748286
94 2 5.7869195173252574 8.503392705267704 0.905607530887414
95 2 8.267027881893226 7.394254526319742 -9.992007221626409e-16
96 2 3.3068111527572905 7.394254526319742 -7.771561172376096e-16
97 1 3.306811152757291 14.04908360000751 5.183645185324488
98 1 9.093730670082547 9.242818157899677 4.528037654437074
99 1 6.613622305514581 10.351956336847639 5.1836451853244885
100 1 5.786919517325258 10.721669063163626 2.7168225926622434
101 1 5.786919517325258 12.939945421059548 4.528037654437073
102 1 8.267027881893226 11.830807242111586 3.6224301235496585
103 1 3.306811152757291 11.830807242111588 3.6224301235496585
104 2 10.747136246461192 8.503392705267704 0.9056075308874137
105 1 10.747136246461192 10.721669063163626 2.7168225926622434
106 1 8.267027881893226 9.612530884215664 1.8112150617748282
107 1 9.920433458271875 42.14725080002252 15.550935555973467
108 1 10.747136246461192 12.939945421059548 4.528037654437073
109 1 8.267027881893226 14.04908360000751 5.183645185324488
110 1 9.920433458271875 46.58380351581437 18.923365679523123
111 1 12.400541822839841 43.25638897897049 16.20654308686088
112 1 12.400541822839843 45.47466533686641 18.01775814863571
113 1 14.88065018740781 44.36552715791845 17.112150617748295
114 1 9.920433458271875 44.36552715791845 17.112150617748295
115 1 11.573839034650518 45.84437806318239 15.550935555973464
116 1 17.360758551975778 43.25638897897049 16.20654308686088
117 1 14.88065018740781 42.14725080002252 15.550935555973464
118 2 12.400541822839843 47.692941694762325 19.82897321041054
119 1 11.57383903465052 50.28093077897424 18.923365679523123
120 1 17.360758551975778 45.47466533686641 18.017758148635707
121 2 17.360758551975778 47.692941694762325 19.82897321041054
122 1 14.88065018740781 46.58380351581437 18.923365679523126
123 1 14.053947399218487 46.95351624213036 16.20654308686088
124 1 14.053947399218488 49.17179260002628 18.01775814863571
125 1 16.534055763786455 48.06265442107832 17.112150617748295
126 1 11.57383903465052 48.06265442107832 17.112150617748295
127 1 13.227244611029164 49.54150532634226 15.550935555973464
128 1 19.014164128354423 46.95351624213036 16.20654308686088
129 1 16.534055763786455 45.84437806318239 15.550935555973464
130 2 14.053947399218488 51.390068957922196 19.82897321041054
131 1 13.227244611029166 53.97805804213411 18.923365679523123
132 1 19.014164128354423 49.17179260002628 18.017758148635707
133 2 19.014164128354423 51.390068957922196 19.82897321041054
134 1 16.534055763786455 50.28093077897424 18.923365679523126
135 1 15.707352975597132 50.65064350529023 16.20654308686088
136 1 15.707352975597134 52.86891986318615 18.01775814863571
137 1 18.1874613401651 51.75978168423819 17.112150617748295
138 1 13.227244611029166 51.75978168423819 17.112150617748295
139 1 20.66756970473307 50.65064350529023 16.20654308686088
140 1 18.1874613401651 49.54150532634226 15.550935555973464
141 2 15.707352975597134 55.08719622108208 19.82897321041054
142 1 20.66756970473307 52.86891986318615 18.017758148635707
143 2 20.66756970473307 55.08719622108208 19.82897321041054
144 1 18.1874613401651 53.97805804213411 18.923365679523126
