#Lammps coordinate file for CSL - Axis: [1 1 1]  Angle: (1, 3) -> 59.99999999999999  Plane indices: [0 1 1]  z-position: [6.1836451853244885 18.550935555973464]  Repeats: 1 1 (3, 3) (black, white)  Fixed: 2.228  Boundary equiv: True
144 atoms

2 atom types

0.0 9.920433458271871 xlo xhi
0.0 11.091381789479609 ylo yhi
0.0 24.734580741297954 zlo zhi
4.9602167291359365 1.240054182283989 26.61931629475107 xy xz yz

Atoms

1 1 3.100135455709961 7.763967252635728 7.839252716211904
2 1 8.060352184845893 7.7639672526357275 7.839252716211904
3 1 5.5802438202779285 8.873105431583689 8.74486024709932
4 1 8.060352184845895 9.98224361053165 9.650467777986734
5 1 11.367163337603186 11.461094515795597 7.839252716211904
6 1 3.1001354557099607 9.98224361053165 9.650467777986734
7 1 0.6200270911419937 11.091381789479613 10.55607530887415
8 2 3.100135455709961 12.200519968427573 11.461682839761563
9 1 0.6200270911419937 8.87310543158369 8.744860247099318
10 2 8.060352184845895 12.200519968427573 11.461682839761563
11 2 5.580243820277929 13.309658147375533 12.367290370648979
12 2 8.060352184845895 14.418796326323495 13.272897901536393
13 1 5.5802438202779285 11.091381789479613 10.55607530887415
14 1 6.4069466084672495 11.461094515795597 7.839252716211904
15 1 3.926838243899284 12.57023269474356 8.744860247099318
16 1 6.40694660846725 13.679370873691521 9.650467777986734
17 1 11.367163337603186 13.67937087369152 9.650467777986734
18 1 8.88705497303522 14.788509052639482 10.55607530887415
19 2 11.367163337603188 15.897647231587442 11.461682839761563
20 1 8.887054973035218 12.57023269474356 8.74486024709932
21 1 9.713757761224542 15.158221778955468 7.839252716211903
22 1 12.19386612579251 16.26735995790343 8.744860247099318
23 2 3.100135455709962 14.418796326323495 13.272897901536393
24 1 0.6200270911419946 15.527934505271457 14.178505432423808
25 1 3.100135455709962 16.63707268421942 15.084112963311222
26 2 0.6200270911419946 13.309658147375535 12.367290370648979
27 1 8.060352184845897 16.63707268421942 15.084112963311222
28 1 5.58024382027793 17.746210863167377 15.989720494198638
29 1 8.060352184845897 18.85534904211534 16.89532802508605
30 1 5.58024382027793 15.527934505271457 14.178505432423808
31 2 6.406946608467251 15.897647231587444 11.461682839761563
32 2 3.926838243899285 17.006785410535404 12.367290370648979
33 2 6.406946608467251 18.115923589483366 13.272897901536393
34 1 3.926838243899285 14.788509052639483 10.55607530887415
35 1 4.753541032088606 15.158221778955468 7.839252716211903
36 1 4.753541032088606 17.376498136851392 9.650467777986734
37 2 11.367163337603188 18.115923589483366 13.272897901536393
38 1 8.88705497303522 19.225061768431328 14.178505432423808
39 1 11.367163337603188 20.33419994737929 15.084112963311224
40 2 8.88705497303522 17.006785410535404 12.367290370648979
41 1 9.713757761224542 17.37649813685139 9.650467777986734
42 1 7.233649396656574 18.485636315799354 10.55607530887415
43 2 9.713757761224542 19.594774494747313 11.461682839761563
44 1 7.233649396656574 16.26735995790343 8.744860247099318
45 2 12.19386612579251 20.703912673695275 12.367290370648977
46 1 12.19386612579251 18.48563631579935 10.55607530887415
47 1 3.100135455709963 18.855349042115343 16.89532802508605
48 1 0.6200270911419955 17.74621086316738 15.989720494198638
49 1 6.406946608467252 20.33419994737929 15.084112963311222
50 1 3.9268382438992866 21.443338126327248 15.989720494198638
51 1 6.406946608467253 22.55247630527521 16.89532802508605
52 1 3.9268382438992857 19.225061768431328 14.178505432423808
53 2 4.753541032088607 19.594774494747313 11.461682839761563
54 2 4.753541032088608 21.813050852643237 13.272897901536393
55 1 11.367163337603188 22.55247630527521 16.89532802508605
56 1 8.88705497303522 21.443338126327248 15.98972049419864
57 2 9.713757761224542 21.813050852643237 13.272897901536393
58 1 7.233649396656576 22.9221890315912 14.178505432423808
59 1 9.713757761224544 24.03132721053916 15.084112963311224
60 2 7.233649396656575 20.703912673695275 12.367290370648979
61 1 12.193866125792509 25.14046538948712 15.989720494198636
62 1 12.193866125792507 22.922189031591195 14.178505432423808
63 1 4.753541032088608 24.03132721053916 15.08411296331122
64 1 4.753541032088608 26.24960356843508 16.89532802508605
65 1 9.713757761224544 26.24960356843508 16.89532802508605
66 1 7.233649396656576 25.14046538948712 15.989720494198638
67 1 2.220446049250313e-16 2.2182763578959226 1.8112150617748295
68 2 2.480108364567968 1.109138178947961 0.9056075308874146
69 2 4.960216729135936 -4.440892098500626e-16 -2.220446049250313e-16
70 2 0.0 0.0 0.0
71 1 4.440892098500626e-16 6.654829073687768 6.1836451853244885
72 1 2.480108364567968 3.327414536843884 2.7168225926622442
73 1 2.4801083645679682 5.545690894739806 4.528037654437074
74 1 4.960216729135936 4.436552715791845 3.622430123549659
75 1 4.440892098500626e-16 4.436552715791845 3.622430123549659
76 1 1.6534055763786455 5.915403621055794 1.811215061774829
77 2 7.440325093703903 1.109138178947961 0.9056075308874145
78 1 7.440325093703903 3.3274145368438837 2.7168225926622442
79 1 4.960216729135936 2.218276357895922 1.8112150617748293
80 2 4.133513940946613 4.806265442107832 0.9056075308874143
81 2 6.61362230551458 3.6971272631598704 -6.661338147750939e-16
82 2 1.6534055763786455 3.697127263159871 -4.440892098500626e-16
83 1 1.6534055763786455 10.351956336847639 6.1836451853244885
84 1 7.440325093703903 5.545690894739806 4.528037654437074
85 1 4.960216729135936 6.654829073687768 6.1836451853244885
86 1 4.133513940946613 7.024541800003755 2.716822592662244
87 1 4.133513940946613 9.242818157899677 4.528037654437074
88 1 6.61362230551458 8.133679978951715 3.6224301235496585
89 1 1.653405576378646 8.133679978951717 3.6224301235496585
90 1 3.3068111527572905 9.612530884215664 1.8112150617748288
91 2 9.093730670082548 4.806265442107832 0.9056075308874142
92 1 9.093730670082547 7.024541800003755 2.716822592662244
93 1 6.61362230551458 5.915403621055793 1.8112150617748288
94 2 5.7869195173252574 8.503392705267704 0.9056075308874139
95 2 8.267027881893226 7.394254526319742 -8.881784197001252e-16
96 2 3.3068111527572905 7.394254526319742 -6.661338147750939e-16
97 1 3.306811152757291 14.04908360000751 6.183645185324488
98 1 9.093730670082547 9.242818157899677 4.528037654437074
99 1 6.613622305514581 10.351956336847639 6.1836451853244885
100 1 5.786919517325258 10.721669063163626 2.7168225926622434
101 1 5.786919517325258 12.939945421059548 4.528037654437073
102 1 8.267027881893226 11.830807242111586 3.622430123549658
103 1 3.306811152757291 11.830807242111588 3.622430123549658
104 2 10.747136246461192 8.503392705267704 0.9056075308874137
105 1 10.747136246461192 10.721669063163626 2.7168225926622434
106 1 8.267027881893226 9.612530884215664 1.8112150617748286
107 1 1.2400541822839857 19.964487221063305 18.550935555973467
108 1 10.747136246461192 12.939945421059548 4.528037654437073
109 1 8.267027881893226 14.04908360000751 6.183645185324488
110 1 1.2400541822839857 24.40103993685515 22.923365679523123
111 1 3.7201625468519524 21.073625400011267 20.20654308686088
112 1 3.720162546851954 23.29190175790719 22.01775814863571
113 1 6.200270911419921 22.18276357895923 21.112150617748295
114 1 1.2400541822839857 22.18276357895923 21.112150617748295
115 1 2.8934597586626305 23.661614484223175 18.550935555973464
116 1 8.680379275987887 21.073625400011267 20.20654308686088
117 1 6.200270911419921 19.964487221063305 18.550935555973464
118 2 3.720162546851954 25.51017811580311 23.82897321041054
119 1 2.8934597586626314 28.09816720001502 22.923365679523123
120 1 8.680379275987887 23.291901757907187 22.017758148635707
121 2 8.680379275987889 25.51017811580311 23.82897321041054
122 1 6.2002709114199215 24.40103993685515 22.923365679523126
123 1 5.373568123230598 24.770752663171137 20.20654308686088
124 1 5.3735681232306 26.98902902106706 22.01775814863571
125 1 7.853676487798566 25.8798908421191 21.112150617748295
126 1 2.8934597586626314 25.8798908421191 21.112150617748295
127 1 4.546865335041276 27.358741747383046 18.550935555973464
128 1 10.333784852366534 24.770752663171137 20.20654308686088
129 1 7.853676487798566 23.661614484223175 18.550935555973464
130 2 5.3735681232306 29.20730537896298 23.82897321041054
131 1 4.546865335041277 31.79529446317489 22.923365679523123
132 1 10.333784852366534 26.989029021067058 22.017758148635707
133 2 10.333784852366534 29.20730537896298 23.82897321041054
134 1 7.853676487798567 28.09816720001502 22.923365679523126
135 1 7.026973699609243 28.46787992633101 20.20654308686088
136 1 7.026973699609245 30.686156284226932 22.01775814863571
137 1 9.507082064177212 29.57701810527897 21.112150617748295
138 1 4.546865335041277 29.57701810527897 21.112150617748295
139 1 11.98719042874518 28.46787992633101 20.20654308686088
140 1 9.507082064177212 27.358741747383046 18.550935555973464
141 2 7.026973699609245 32.904432642122856 23.82897321041054
142 1 11.98719042874518 30.68615628422693 22.017758148635707
143 2 11.98719042874518 32.904432642122856 23.82897321041054
144 1 9.507082064177212 31.79529446317489 22.923365679523126
