ITEM: TIMESTEP
110054
ITEM: NUMBER OF ATOMS
144
ITEM: BOX BOUNDS xy xz yz pp pp pp
0.0000000000000000e+00 3.5961571286235539e+01 4.9602167291359365e+00
0.0000000000000000e+00 5.9893461663189896e+01 2.1080921098827734e+01
0.0000000000000000e+00 1.9734580741297954e+01 4.8802079873710291e+01
ITEM: ATOMS id type x y z c_peatom
70 2 0 0 0 -3.27471
82 2 1.65341 3.69713 0 -3.29453
69 2 4.96022 5.49099e-16 0 -3.31392
81 2 6.61362 3.69713 0 -3.29517
80 2 4.13351 4.80627 0.905608 -3.31424
86 1 4.23123 7.06479 2.52019 -3.27916
93 1 6.63389 5.87285 1.61069 -3.26534
94 2 5.78692 8.50339 0.905608 -3.28877
95 2 8.26703 7.39425 0 -3.29877
88 1 6.81139 7.96465 3.17796 -3.12609
76 1 11.6291 5.92599 1.65387 -3.30775
91 2 9.09373 4.80627 0.905608 -3.28822
92 1 9.22688 6.93686 2.43426 -3.18379
96 2 13.2272 7.39425 0 -3.31574
104 2 10.7471 8.50339 0.905608 -3.3093
68 2 7.44033 12.2005 0.905608 -3.27749
100 1 5.77429 10.7668 2.46129 -3.24348
102 1 8.20098 11.9244 3.40758 -3.29617
106 1 8.25531 9.66328 1.66769 -3.33815
101 1 5.56999 12.9531 4.15692 -3.18732
77 2 12.4005 12.2005 0.905608 -3.3084
79 1 9.93047 13.2809 1.67204 -3.31647
90 1 13.2387 9.65016 1.63359 -3.30838
103 1 13.2328 11.8696 3.41057 -3.23163
105 1 10.7588 10.7848 2.59127 -3.32984
108 1 10.6094 12.9658 4.3503 -3.30732
67 1 14.8819 13.3009 1.60734 -3.28863
72 1 7.48214 14.392 2.45581 -3.24233
73 1 7.75015 16.619 4.05479 -3.2263
109 1 7.77034 14.1648 4.99564 -3.21925
74 1 10.0805 15.4649 3.29887 -3.25529
78 1 12.4414 14.363 2.47168 -3.25222
84 1 12.6901 16.5855 4.04511 -3.24806
85 1 10.3472 17.7558 4.8992 -3.25288
97 1 12.8145 14.16 4.99504 -3.09554
75 1 15.0532 15.4527 3.2845 -3.26161
71 1 15.3168 17.6553 4.86792 -3.2834
99 1 11.966 21.0172 4.59173 -2.94859
87 1 9.324 20.421 4.14793 -3.23366
89 1 16.7765 19.2605 3.33388 -3.25126
98 1 14.3848 20.0789 3.91974 -3.0984
83 1 16.8951 21.5304 5.07407 -3.15818
22 1 7.42145 16.3413 6.60595 -3.23458
35 1 10.0505 15.2767 5.84835 -3.21368
21 1 15.0293 15.1891 5.82768 -3.17588
1 1 12.9317 18.779 5.71278 -3.30968
5 1 11.7201 22.8531 6.06167 -2.99744
6 1 12.9879 20.9992 7.38139 -3.27303
7 1 10.5091 22.1827 8.272 -3.26957
9 1 10.5099 20.0406 6.51517 -3.27171
2 1 17.8815 18.8315 5.71901 -3.26818
3 1 15.4661 19.8232 6.49135 -3.25373
13 1 15.5338 22.1391 8.08419 -3.3494
14 1 14.3796 21.9919 5.45746 -2.94373
4 1 17.9912 21.0265 7.34926 -3.18991
8 2 13.0206 23.2919 8.96168 -3.31303
17 1 11.4351 24.8537 7.43695 -3.17527
44 1 17.3342 27.4124 6.60756 -3.23312
10 2 17.9808 23.2919 8.96168 -3.28075
15 1 14.0669 23.9726 6.76498 -2.98116
16 1 16.5044 24.7017 7.27518 -3.23888
31 2 16.3274 26.989 8.96168 -3.32405
34 1 13.9041 25.9701 8.30066 -3.24808
18 1 18.8301 25.8014 8.1616 -3.30431
19 2 21.2876 26.989 8.96168 -3.27238
20 1 18.9102 23.3732 6.32774 -3.27621
36 1 14.7447 28.5445 7.39993 -3.24909
42 1 17.1553 29.5924 8.243 -3.28491
53 2 14.674 30.6862 8.96168 -3.29064
41 1 19.6876 28.4725 7.4095 -3.23709
43 2 19.6342 30.6862 8.96168 -3.28965
46 1 22.124 29.5842 8.26075 -3.29738
32 2 13.8473 28.0982 9.86729 -3.27242
33 2 16.3274 29.2073 10.7729 -3.31128
49 1 16.2889 31.3968 12.334 -3.2654
52 1 13.8405 30.3038 11.4896 -3.30311
60 2 17.1541 31.7953 9.86729 -3.27759
37 2 21.2876 29.2073 10.7729 -3.28004
38 1 18.7887 30.3024 11.4936 -3.29665
39 1 21.2438 31.3968 12.3381 -3.2491
40 2 18.8075 28.0982 9.86729 -3.32778
45 2 22.1143 31.7953 9.86729 -3.31315
54 2 14.674 32.9044 10.7729 -3.27136
58 1 17.1439 33.9908 11.4721 -3.27314
65 1 17.0065 36.0981 13.0877 -3.14678
11 2 20.4609 35.4924 9.86729 -3.31796
23 2 17.9808 36.6016 10.7729 -3.27204
57 2 19.6342 32.9044 10.7729 -3.32604
59 1 19.5586 35.2217 12.4539 -3.29795
62 1 22.0614 34.0411 11.526 -3.31624
61 1 21.8734 36.3026 13.2832 -3.22806
12 2 22.941 36.6016 10.7729 -3.33409
26 2 25.4211 35.4924 9.86729 -3.28765
63 1 24.4875 35.0064 12.282 -3.18363
66 1 16.7527 38.0954 14.4452 -2.95187
25 1 18.014 38.8239 12.332 -3.23783
47 1 17.9961 40.9855 14.0073 -3.27262
28 1 20.4153 39.9868 13.2524 -3.20024
30 1 20.4455 37.7396 11.5396 -3.28456
127 1 19.5269 37.6502 14.241 -3.26041
64 1 24.3184 37.0178 13.6952 -2.98271
24 1 25.4492 37.7514 11.5086 -3.31621
27 1 22.8671 38.8689 12.5151 -3.33137
29 1 23.0026 41.1653 14.0457 -3.27846
48 1 25.4121 39.9933 13.1917 -3.26834
51 1 21.0388 44.6597 13.905 -3.2429
56 1 23.6436 43.6105 13.1445 -3.24025
55 1 26.0033 44.6807 13.9072 -3.22803
115 1 23.3117 45.8147 14.7595 -3.16843
117 1 25.5485 42.2215 14.8509 -3.29714
50 1 28.584 43.5328 13.1452 -3.25925
135 1 21.5903 39.4647 15.5036 -3.16829
138 1 19.2275 40.5304 16.3356 -3.24492
140 1 24.0789 38.9397 15.1143 -2.94395
139 1 26.5162 39.9147 15.9454 -2.9822
137 1 24.0953 40.8967 16.5892 -3.09171
107 1 20.5964 42.1825 14.8547 -3.25406
114 1 20.8437 44.4024 16.4653 -3.22252
111 1 23.1832 43.3381 15.7011 -3.26636
112 1 23.4766 45.5398 17.2722 -3.24641
113 1 25.8138 44.4063 16.4684 -3.23235
129 1 28.3047 45.7212 14.7168 -3.21756
116 1 28.1587 43.2479 15.6754 -3.23753
120 1 28.4396 45.523 17.2612 -3.24921
110 1 21.0767 46.5953 18.126 -3.27809
128 1 20.6501 46.8722 15.5551 -3.25634
126 1 22.9119 48.0843 16.369 -3.19796
118 2 23.561 47.6929 18.829 -3.2799
119 1 22.7583 50.2562 18.1475 -3.27747
122 1 26.0429 46.6116 18.1177 -3.2845
123 1 25.5659 46.8348 15.5663 -3.11803
124 1 25.2339 49.1135 17.1637 -3.24947
121 2 28.5212 47.6929 18.829 -3.3058
125 1 27.8063 48.0209 16.1973 -3.31593
132 1 30.2551 49.0787 17.2074 -3.29417
134 1 27.7004 50.2155 18.0146 -3.34528
130 2 25.2144 51.3901 18.829 -3.31106
131 1 24.3455 53.9301 18.0587 -3.31199
136 1 26.6884 52.8314 17.2146 -3.24177
141 2 26.8678 55.0872 18.829 -3.30855
133 2 30.1747 51.3901 18.829 -3.32587
144 1 29.2709 54.0428 18.148 -3.24832
142 1 31.7084 52.9803 17.3388 -3.131
143 2 31.8281 55.0872 18.829 -3.27488
