LAMMPS (29 Aug 2024 - Update 2)
#---------------------------------------------------------------------------------------------------
# Initilise important features of simulation
#---------------------------------------------------------------------------------------------------
units 		metal	# Use metals units (Ang, ps, eV, bar, etc.)
dimension 	3		# Run the simulation in three dimensions
boundary 	p p p	# Use periodic boundaries in all three dimensions
atom_style 	atomic	#
#box tilt large		# Allow larger than normal tilt factors

variable T_start equal 600
variable T_end equal 200
variable tstep equal 0.002
timestep ${tstep}
timestep 0.002

read_data   lammps.txt	# Read in atom coordinates from a file
Reading data file ...
  triclinic box = (0 0 0) to (9.9204335 11.091382 25.734581) with tilt (4.9602167 25.421111 41.869966)
WARNING: Triclinic box skew is large. LAMMPS will run inefficiently. (src/domain.cpp:221)
  1 by 1 by 1 MPI processor grid
  reading atoms ...
  144 atoms
  read_data CPU = 0.001 seconds

#---------------------------------------------------------------------------------------------------
# Define how the forces between the atoms will be modelled
#---------------------------------------------------------------------------------------------------
pair_style eam/alloy
pair_coeff * * Zope-Ti-Al-2003.eam.alloy.txt Al Al

#---------------------------------------------------------------------------------------------------
# Set behaviour of simulation
#---------------------------------------------------------------------------------------------------
group g_fixed type 2
36 atoms in group g_fixed
group g_other type 1
108 atoms in group g_other
fix f_freeze g_fixed setforce 0.0 0.0 0.0 	# Hold atoms of type 2 fixed in place
#fix f_constrain g_other setforce 0.0 0.0 NULL 	# All atoms of type 1 to move only in z direction

#---------------------------------------------------------------------------------------------------
# Specify what information to write out
#---------------------------------------------------------------------------------------------------
thermo_style custom step atoms temp pe ke etotal fmax
thermo_modify format 6 %20.10f
thermo 1000

#compute statom all stress/atom NULL
compute peatom all pe/atom
dump 1 all custom 100000 dump.* id type x y z c_peatom
dump_modify 1 first yes


#---------------------------------------------------------------------------------------------------
# Initial relaxation
#---------------------------------------------------------------------------------------------------
velocity all set 0.0 0.0 0.0

min_style 	cg
min_modify dmax 0.1
minimize 	0.0 1.0e-6 10000 100000
Neighbor list info ...
  update: every = 1 steps, delay = 0 steps, check = yes
  max neighbors/atom: 2000, page size: 100000
  master list distance cutoff = 8.724884
  ghost atom cutoff = 8.724884
  binsize = 4.362442, bins = 10 13 6
  1 neighbor lists, perpetual/occasional/extra = 1 0 0
  (1) pair eam/alloy, perpetual
      attributes: half, newton on
      pair build: half/bin/atomonly/newton/tri
      stencil: half/bin/3d/tri
      bin: standard
Per MPI rank memory allocation (min/avg/max) = 4.665 | 4.665 | 4.665 Mbytes
   Step        Atoms         Temp          PotEng         KinEng         TotEng          Fmax     
         0         144   0             -459.92132      0                  -459.9213173047  1.1672957    
        61         144   0             -465.69752      0                  -465.6975202566  9.925766e-08 
Loop time of 0.00907892 on 1 procs for 61 steps with 144 atoms

99.0% CPU use with 1 MPI tasks x no OpenMP threads

Minimization stats:
  Stopping criterion = force tolerance
  Energy initial, next-to-last, final = 
     -459.921317304682  -465.697520256626  -465.697520256628
  Force two-norm initial, final = 4.9465361 6.7717178e-07
  Force max component initial, final = 1.1672957 9.925766e-08
  Final line search alpha, max atom move = 1 9.925766e-08
  Iterations, force evaluations = 61 114

MPI task timing breakdown:
Section |  min time  |  avg time  |  max time  |%varavg| %total
---------------------------------------------------------------
Pair    | 0.0081261  | 0.0081261  | 0.0081261  |   0.0 | 89.51
Neigh   | 0          | 0          | 0          |   0.0 |  0.00
Comm    | 0.0005035  | 0.0005035  | 0.0005035  |   0.0 |  5.55
Output  | 0          | 0          | 0          |   0.0 |  0.00
Modify  | 1.8083e-05 | 1.8083e-05 | 1.8083e-05 |   0.0 |  0.20
Other   |            | 0.0004312  |            |       |  4.75

Nlocal:            144 ave         144 max         144 min
Histogram: 1 0 0 0 0 0 0 0 0 0
Nghost:           2628 ave        2628 max        2628 min
Histogram: 1 0 0 0 0 0 0 0 0 0
Neighs:          10520 ave       10520 max       10520 min
Histogram: 1 0 0 0 0 0 0 0 0 0

Total # of neighbors = 10520
Ave neighs/atom = 73.055556
Neighbor list builds = 0
Dangerous builds = 0
#---------------------------------------------------------------------------------------------------
# Anneal boundary structures
#---------------------------------------------------------------------------------------------------
reset_timestep 100000
fix md g_other nvt temp ${T_start} ${T_end} $(100.0*v_tstep)
fix md g_other nvt temp 600 ${T_end} $(100.0*v_tstep)
fix md g_other nvt temp 600 200 $(100.0*v_tstep)
fix md g_other nvt temp 600 200 0.2000000000000000111

velocity all create ${T_start} 4928459 rot yes mom yes dist gaussian
velocity all create 600 4928459 rot yes mom yes dist gaussian
run 10000
Per MPI rank memory allocation (min/avg/max) = 4.921 | 4.921 | 4.921 Mbytes
   Step        Atoms         Temp          PotEng         KinEng         TotEng          Fmax     
    100000         144   600           -465.69752      11.09052           -454.6069998156  9.9257669e-08
    101000         144   546.92931     -457.32552      10.109551          -447.2159678704  1.2052994    
    102000         144   637.11298     -458.35615      11.776524          -446.5796271853  1.3394787    
    103000         144   475.61245     -459.96481      8.7913159          -451.1734930025  1.1471563    
    104000         144   514.04422     -461.06412      9.5016965          -451.5624193535  0.9917768    
    105000         144   499.91109     -461.0103       9.2404569          -451.7698389371  1.1653215    
    106000         144   474.1513      -461.88692      8.7643078          -453.1226102212  1.1718781    
    107000         144   466.09949     -463.72538      8.6154766          -455.1099037333  0.86854491   
    108000         144   370.29839     -463.15513      6.8446699          -456.3104565615  1.1311976    
    109000         144   368.00479     -464.4695       6.8022743          -457.6672209006  0.82395478   
    110000         144   343.67194     -465.00885      6.3525011          -458.6563496142  0.71305374   
Loop time of 0.817442 on 1 procs for 10000 steps with 144 atoms

Performance: 2113.912 ns/day, 0.011 hours/ns, 12233.284 timesteps/s, 1.762 Matom-step/s
99.7% CPU use with 1 MPI tasks x no OpenMP threads

MPI task timing breakdown:
Section |  min time  |  avg time  |  max time  |%varavg| %total
---------------------------------------------------------------
Pair    | 0.69451    | 0.69451    | 0.69451    |   0.0 | 84.96
Neigh   | 0.054641   | 0.054641   | 0.054641   |   0.0 |  6.68
Comm    | 0.04615    | 0.04615    | 0.04615    |   0.0 |  5.65
Output  | 5.0585e-05 | 5.0585e-05 | 5.0585e-05 |   0.0 |  0.01
Modify  | 0.01082    | 0.01082    | 0.01082    |   0.0 |  1.32
Other   |            | 0.01127    |            |       |  1.38

Nlocal:            144 ave         144 max         144 min
Histogram: 1 0 0 0 0 0 0 0 0 0
Nghost:           2635 ave        2635 max        2635 min
Histogram: 1 0 0 0 0 0 0 0 0 0
Neighs:          10195 ave       10195 max       10195 min
Histogram: 1 0 0 0 0 0 0 0 0 0

Total # of neighbors = 10195
Ave neighs/atom = 70.798611
Neighbor list builds = 129
Dangerous builds = 0
unfix md

#---------------------------------------------------------------------------------------------------
# Final relaxation
#---------------------------------------------------------------------------------------------------
velocity all set 0.0 0.0 0.0

min_style 	cg
min_modify dmax 0.1
minimize 	0.0 1.0e-6 10000 100000
Per MPI rank memory allocation (min/avg/max) = 6.047 | 6.047 | 6.047 Mbytes
   Step        Atoms         Temp          PotEng         KinEng         TotEng          Fmax     
    110000         144   0             -465.00885      0                  -465.0088507121  0.71305374   
    110067         144   0             -467.79091      0                  -467.7909098656  1.6132848e-07
Loop time of 0.010977 on 1 procs for 67 steps with 144 atoms

97.9% CPU use with 1 MPI tasks x no OpenMP threads

Minimization stats:
  Stopping criterion = force tolerance
  Energy initial, next-to-last, final = 
     -465.008850712116  -467.790909865627  -467.790909865625
  Force two-norm initial, final = 4.30226 8.9867724e-07
  Force max component initial, final = 0.71305374 1.6132848e-07
  Final line search alpha, max atom move = 1 1.6132848e-07
  Iterations, force evaluations = 67 132

MPI task timing breakdown:
Section |  min time  |  avg time  |  max time  |%varavg| %total
---------------------------------------------------------------
Pair    | 0.0097359  | 0.0097359  | 0.0097359  |   0.0 | 88.69
Neigh   | 0          | 0          | 0          |   0.0 |  0.00
Comm    | 0.00060438 | 0.00060438 | 0.00060438 |   0.0 |  5.51
Output  | 0          | 0          | 0          |   0.0 |  0.00
Modify  | 2.0081e-05 | 2.0081e-05 | 2.0081e-05 |   0.0 |  0.18
Other   |            | 0.0006166  |            |       |  5.62

Nlocal:            144 ave         144 max         144 min
Histogram: 1 0 0 0 0 0 0 0 0 0
Nghost:           2643 ave        2643 max        2643 min
Histogram: 1 0 0 0 0 0 0 0 0 0
Neighs:          10194 ave       10194 max       10194 min
Histogram: 1 0 0 0 0 0 0 0 0 0

Total # of neighbors = 10194
Ave neighs/atom = 70.791667
Neighbor list builds = 0
Dangerous builds = 0

Total wall time: 0:00:00
