#Lammps coordinate file for CSL - Axis: [1 1 1]  Angle: (1, 3) -> 59.99999999999999  Plane indices: [0 1 1]  z-position: [5.6836451853244885 17.050935555973464]  Repeats: 1 1 (3, 3) (black, white)  Fixed: 2.228  Boundary equiv: True
144 atoms

2 atom types

0.0 9.920433458271871 xlo xhi
0.0 11.091381789479609 ylo yhi
0.0 22.734580741297954 zlo zhi
4.9602167291359365 12.400541822839845 32.16500718949087 xy xz yz

Atoms

1 1 8.680379275987889 10.53681270000563 6.839252716211904
2 1 13.640596005123822 10.53681270000563 6.839252716211904
3 1 11.160487640555857 11.64595087895359 7.74486024709932
4 1 13.640596005123822 12.755089057901552 8.650467777986734
5 1 16.947407157881113 14.233939963165499 6.839252716211904
6 1 8.680379275987889 12.755089057901552 8.650467777986734
7 1 6.2002709114199215 13.864227236849514 9.55607530887415
8 2 8.680379275987889 14.973365415797474 10.461682839761563
9 1 6.2002709114199215 11.645950878953592 7.744860247099319
10 2 13.640596005123822 14.973365415797474 10.461682839761563
11 2 11.160487640555857 16.082503594745436 11.367290370648979
12 2 13.640596005123824 17.191641773693398 12.272897901536393
13 1 11.160487640555857 13.864227236849514 9.55607530887415
14 1 11.987190428745176 14.233939963165499 6.839252716211904
15 1 9.507082064177212 15.34307814211346 7.744860247099319
16 1 11.987190428745178 16.452216321061425 8.650467777986734
17 1 16.947407157881113 16.45221632106142 8.650467777986734
18 1 14.467298793313148 17.561354500009383 9.55607530887415
19 2 16.947407157881116 18.670492678957345 10.461682839761563
20 1 14.467298793313145 15.34307814211346 7.74486024709932
21 1 15.29400158150247 17.93106722632537 6.839252716211903
22 1 17.77410994607044 19.040205405273333 7.744860247099318
23 2 8.680379275987889 17.191641773693398 12.272897901536393
24 1 6.200270911419922 18.30077995264136 13.178505432423808
25 1 8.680379275987889 19.409918131589322 14.084112963311222
26 2 6.200270911419922 16.082503594745436 11.367290370648979
27 1 13.640596005123825 19.409918131589322 14.084112963311222
28 1 11.160487640555857 20.51905631053728 14.989720494198638
29 1 13.640596005123825 21.628194489485242 15.895328025086053
30 1 11.160487640555857 18.30077995264136 13.178505432423808
31 2 11.98719042874518 18.670492678957345 10.461682839761563
32 2 9.507082064177212 19.779630857905307 11.367290370648979
33 2 11.98719042874518 20.88876903685327 12.272897901536393
34 1 9.507082064177212 17.561354500009386 9.55607530887415
35 1 10.333784852366534 17.93106722632537 6.839252716211903
36 1 10.333784852366534 20.149343584221295 8.650467777986734
37 2 16.947407157881116 20.88876903685327 12.272897901536393
38 1 14.467298793313148 21.99790721580123 13.178505432423808
39 1 16.947407157881116 23.107045394749193 14.084112963311224
40 2 14.467298793313148 19.779630857905307 11.367290370648979
41 1 15.29400158150247 20.149343584221292 8.650467777986734
42 1 12.813893216934503 21.258481763169257 9.55607530887415
43 2 15.29400158150247 22.367619942117216 10.461682839761563
44 1 12.813893216934503 19.040205405273333 7.744860247099319
45 2 17.77410994607044 23.476758121065178 11.367290370648977
46 1 17.77410994607044 21.258481763169254 9.55607530887415
47 1 8.68037927598789 21.628194489485246 15.895328025086052
48 1 6.200270911419923 20.519056310537284 14.989720494198638
49 1 11.98719042874518 23.107045394749193 14.084112963311222
50 1 9.507082064177215 24.21618357369715 14.989720494198638
51 1 11.98719042874518 25.325321752645113 15.895328025086053
52 1 9.507082064177213 21.99790721580123 13.178505432423808
53 2 10.333784852366534 22.367619942117216 10.461682839761563
54 2 10.333784852366534 24.58589630001314 12.272897901536393
55 1 16.947407157881116 25.325321752645113 15.895328025086052
56 1 14.467298793313148 24.21618357369715 14.98972049419864
57 2 15.29400158150247 24.58589630001314 12.272897901536393
58 1 12.813893216934503 25.6950344789611 13.178505432423808
59 1 15.29400158150247 26.804172657909064 14.084112963311224
60 2 12.813893216934503 23.476758121065178 11.367290370648979
61 1 17.774109946070435 27.913310836857022 14.989720494198636
62 1 17.774109946070435 25.695034478961098 13.178505432423808
63 1 10.333784852366534 26.804172657909064 14.08411296331122
64 1 10.333784852366534 29.022449015804984 15.895328025086052
65 1 15.29400158150247 29.022449015804984 15.89532802508605
66 1 12.813893216934503 27.913310836857022 14.989720494198638
67 1 0.0 2.2182763578959226 1.8112150617748295
68 2 2.480108364567968 1.109138178947961 0.9056075308874146
69 2 4.960216729135936 -4.440892098500626e-16 -2.220446049250313e-16
70 2 0.0 0.0 0.0
71 1 8.881784197001252e-16 6.654829073687768 5.6836451853244885
72 1 2.480108364567968 3.327414536843884 2.7168225926622442
73 1 2.4801083645679682 5.545690894739806 4.528037654437074
74 1 4.960216729135936 4.436552715791845 3.622430123549659
75 1 8.881784197001252e-16 4.436552715791845 3.622430123549659
76 1 1.6534055763786455 5.915403621055794 1.811215061774829
77 2 7.440325093703903 1.109138178947961 0.9056075308874145
78 1 7.440325093703903 3.3274145368438837 2.7168225926622442
79 1 4.960216729135936 2.218276357895922 1.8112150617748293
80 2 4.133513940946613 4.806265442107832 0.9056075308874143
81 2 6.61362230551458 3.6971272631598704 -5.551115123125783e-16
82 2 1.6534055763786455 3.697127263159871 -4.440892098500626e-16
83 1 1.6534055763786455 10.351956336847639 5.6836451853244885
84 1 7.440325093703903 5.545690894739806 4.528037654437074
85 1 4.960216729135936 6.654829073687768 5.6836451853244885
86 1 4.133513940946613 7.024541800003755 2.7168225926622434
87 1 4.133513940946613 9.242818157899677 4.528037654437074
88 1 6.61362230551458 8.133679978951715 3.622430123549658
89 1 1.6534055763786455 8.133679978951717 3.622430123549658
90 1 3.3068111527572905 9.612530884215664 1.8112150617748288
91 2 9.093730670082548 4.806265442107832 0.9056075308874142
92 1 9.093730670082547 7.024541800003755 2.7168225926622434
93 1 6.61362230551458 5.915403621055793 1.8112150617748288
94 2 5.7869195173252574 8.503392705267704 0.9056075308874139
95 2 8.267027881893226 7.394254526319742 -9.992007221626409e-16
96 2 3.3068111527572905 7.394254526319742 -7.771561172376096e-16
97 1 3.306811152757291 14.04908360000751 5.683645185324488
98 1 9.093730670082547 9.242818157899677 4.528037654437074
99 1 6.613622305514581 10.351956336847639 5.6836451853244885
100 1 5.786919517325258 10.721669063163626 2.7168225926622434
101 1 5.786919517325258 12.939945421059548 4.528037654437073
102 1 8.267027881893226 11.830807242111586 3.622430123549658
103 1 3.306811152757291 11.830807242111588 3.622430123549658
104 2 10.747136246461192 8.503392705267704 0.9056075308874137
105 1 10.747136246461192 10.721669063163626 2.7168225926622434
106 1 8.267027881893226 9.612530884215664 1.8112150617748286
107 1 12.400541822839841 25.51017811580311 17.050935555973467
108 1 10.747136246461192 12.939945421059548 4.528037654437073
109 1 8.267027881893226 14.04908360000751 5.683645185324488
110 1 12.400541822839841 29.946730831594955 20.923365679523123
111 1 14.88065018740781 26.619316294751073 18.20654308686088
112 1 14.88065018740781 28.837592652646997 20.01775814863571
113 1 17.360758551975778 27.728454473699035 19.112150617748295
114 1 12.400541822839841 27.728454473699035 19.112150617748295
115 1 14.053947399218487 29.20730537896298 17.050935555973464
116 1 19.840866916543742 26.619316294751073 18.20654308686088
117 1 17.360758551975778 25.51017811580311 17.050935555973464
118 2 14.88065018740781 31.055869010542917 21.82897321041054
119 1 14.053947399218487 33.643858094754826 20.923365679523123
120 1 19.840866916543742 28.837592652646993 20.017758148635707
121 2 19.840866916543746 31.055869010542917 21.82897321041054
122 1 17.360758551975778 29.946730831594955 20.923365679523126
123 1 16.534055763786455 30.316443557910944 18.20654308686088
124 1 16.534055763786455 32.53471991580687 20.01775814863571
125 1 19.014164128354423 31.425581736858906 19.112150617748295
126 1 14.053947399218487 31.425581736858906 19.112150617748295
127 1 15.707352975597132 32.90443264212285 17.050935555973464
128 1 21.49427249292239 30.316443557910944 18.20654308686088
129 1 19.014164128354423 29.20730537896298 17.050935555973464
130 2 16.534055763786455 34.752996273702784 21.82897321041054
131 1 15.707352975597132 37.3409853579147 20.923365679523123
132 1 21.49427249292239 32.53471991580686 20.017758148635707
133 2 21.49427249292239 34.752996273702784 21.82897321041054
134 1 19.014164128354423 33.643858094754826 20.923365679523126
135 1 18.1874613401651 34.013570821070815 18.20654308686088
136 1 18.1874613401651 36.23184717896674 20.01775814863571
137 1 20.66756970473307 35.12270900001877 19.112150617748295
138 1 15.707352975597132 35.12270900001877 19.112150617748295
139 1 23.147678069301037 34.013570821070815 18.20654308686088
140 1 20.66756970473307 32.90443264212285 17.050935555973464
141 2 18.1874613401651 38.45012353686266 21.82897321041054
142 1 23.147678069301037 36.23184717896673 20.017758148635707
143 2 23.147678069301037 38.45012353686266 21.82897321041054
144 1 20.66756970473307 37.3409853579147 20.923365679523126
