#Lammps coordinate file for CSL - Axis: [1 1 1]  Angle: (1, 3) -> 59.99999999999999  Plane indices: [0 1 1]  z-position: [6.4336451853244885 19.300935555973464]  Repeats: 1 1 (3, 3) (black, white)  Fixed: 2.228  Boundary equiv: True
144 atoms

2 atom types

0.0 9.920433458271871 xlo xhi
0.0 11.091381789479609 ylo yhi
0.0 25.734580741297954 zlo zhi
4.9602167291359365 23.5610294633957 34.937852636860775 xy xz yz

Atoms

1 1 14.260623096265817 11.923235423690581 8.339252716211904
2 1 19.22083982540175 11.923235423690581 8.339252716211904
3 1 16.740731460833786 13.032373602638541 9.24486024709932
4 1 19.22083982540175 14.141511781586503 10.150467777986734
5 1 22.52765097815904 15.62036268685045 8.339252716211904
6 1 14.260623096265816 14.141511781586503 10.150467777986734
7 1 11.78051473169785 15.250649960534465 11.05607530887415
8 2 14.260623096265817 16.359788139482426 11.961682839761563
9 1 11.78051473169785 13.032373602638543 9.244860247099318
10 2 19.22083982540175 16.359788139482426 11.961682839761563
11 2 16.740731460833786 17.468926318430384 12.867290370648979
12 2 19.22083982540175 18.57806449737835 13.772897901536393
13 1 16.740731460833786 15.250649960534465 11.05607530887415
14 1 17.567434249023105 15.62036268685045 8.339252716211904
15 1 15.08732588445514 16.729500865798414 9.244860247099318
16 1 17.567434249023105 17.838639044746373 10.150467777986734
17 1 22.52765097815904 17.838639044746373 10.150467777986734
18 1 20.047542613591077 18.947777223694334 11.05607530887415
19 2 22.527650978159045 20.056915402642296 11.961682839761563
20 1 20.047542613591073 16.729500865798414 9.24486024709932
21 1 20.8742454017804 19.31748995001032 8.339252716211902
22 1 23.354353766348368 20.426628128958285 9.244860247099318
23 2 14.260623096265817 18.57806449737835 13.772897901536393
24 1 11.78051473169785 19.687202676326308 14.678505432423808
25 1 14.260623096265817 20.796340855274273 15.584112963311222
26 2 11.78051473169785 17.468926318430388 12.867290370648979
27 1 19.220839825401754 20.796340855274273 15.584112963311222
28 1 16.740731460833786 21.905479034222232 16.489720494198636
29 1 19.220839825401754 23.01461721317019 17.39532802508605
30 1 16.740731460833786 19.687202676326308 14.678505432423808
31 2 17.56743424902311 20.056915402642296 11.961682839761563
32 2 15.08732588445514 21.166053581590255 12.867290370648979
33 2 17.56743424902311 22.27519176053822 13.772897901536393
34 1 15.08732588445514 18.947777223694338 11.05607530887415
35 1 15.914028672644461 19.31748995001032 8.339252716211902
36 1 15.914028672644461 21.535766307906243 10.150467777986734
37 2 22.527650978159045 22.27519176053822 13.772897901536393
38 1 20.047542613591077 23.38432993948618 14.678505432423808
39 1 22.527650978159045 24.493468118434144 15.584112963311224
40 2 20.047542613591077 21.166053581590255 12.867290370648979
41 1 20.8742454017804 21.535766307906243 10.150467777986734
42 1 18.39413703721243 22.64490448685421 11.05607530887415
43 2 20.8742454017804 23.754042665802167 11.961682839761563
44 1 18.39413703721243 20.426628128958285 9.244860247099318
45 2 23.354353766348368 24.863180844750126 12.867290370648977
46 1 23.354353766348368 22.6449044868542 11.05607530887415
47 1 14.260623096265817 23.014617213170197 17.39532802508605
48 1 11.780514731697851 21.905479034222232 16.489720494198636
49 1 17.56743424902311 24.493468118434144 15.584112963311222
50 1 15.087325884455142 25.602606297382103 16.489720494198636
51 1 17.56743424902311 26.71174447633006 17.39532802508605
52 1 15.08732588445514 23.38432993948618 14.678505432423808
53 2 15.914028672644463 23.754042665802167 11.961682839761563
54 2 15.914028672644463 25.97231902369809 13.772897901536393
55 1 22.527650978159045 26.71174447633006 17.39532802508605
56 1 20.047542613591077 25.602606297382103 16.48972049419864
57 2 20.8742454017804 25.97231902369809 13.772897901536393
58 1 18.39413703721243 27.08145720264605 14.678505432423808
59 1 20.8742454017804 28.190595381594015 15.584112963311224
60 2 18.39413703721243 24.863180844750126 12.867290370648979
61 1 23.354353766348364 29.299733560541974 16.489720494198636
62 1 23.35435376634836 27.08145720264605 14.678505432423808
63 1 15.914028672644463 28.190595381594015 15.58411296331122
64 1 15.914028672644463 30.408871739489932 17.39532802508605
65 1 20.8742454017804 30.408871739489932 17.395328025086048
66 1 18.39413703721243 29.299733560541974 16.489720494198636
67 1 0.0 2.2182763578959226 1.8112150617748295
68 2 2.4801083645679682 1.109138178947961 0.9056075308874147
69 2 4.960216729135936 0.0 -2.220446049250313e-16
70 2 0.0 0.0 0.0
71 1 0.0 6.654829073687768 6.4336451853244885
72 1 2.4801083645679682 3.327414536843884 2.7168225926622442
73 1 2.4801083645679682 5.545690894739806 4.528037654437073
74 1 4.960216729135936 4.436552715791845 3.622430123549659
75 1 0.0 4.436552715791845 3.622430123549659
76 1 1.6534055763786455 5.915403621055794 1.811215061774829
77 2 7.440325093703903 1.109138178947961 0.9056075308874145
78 1 7.440325093703903 3.3274145368438837 2.7168225926622442
79 1 4.960216729135936 2.218276357895922 1.8112150617748293
80 2 4.133513940946613 4.806265442107832 0.9056075308874143
81 2 6.61362230551458 3.6971272631598704 -4.440892098500626e-16
82 2 1.6534055763786455 3.697127263159871 -4.440892098500626e-16
83 1 1.6534055763786455 10.351956336847639 6.4336451853244885
84 1 7.440325093703903 5.545690894739806 4.528037654437073
85 1 4.960216729135936 6.654829073687768 6.4336451853244885
86 1 4.133513940946613 7.024541800003755 2.716822592662244
87 1 4.133513940946613 9.242818157899677 4.528037654437073
88 1 6.61362230551458 8.133679978951715 3.6224301235496585
89 1 1.6534055763786455 8.133679978951717 3.6224301235496585
90 1 3.306811152757291 9.612530884215664 1.8112150617748288
91 2 9.093730670082548 4.806265442107832 0.9056075308874143
92 1 9.093730670082547 7.024541800003755 2.716822592662244
93 1 6.61362230551458 5.915403621055793 1.8112150617748288
94 2 5.7869195173252574 8.503392705267704 0.9056075308874139
95 2 8.267027881893226 7.394254526319742 -8.881784197001252e-16
96 2 3.306811152757291 7.394254526319742 -8.881784197001252e-16
97 1 3.306811152757291 14.04908360000751 6.433645185324487
98 1 9.093730670082547 9.242818157899677 4.528037654437073
99 1 6.613622305514581 10.351956336847639 6.4336451853244885
100 1 5.786919517325258 10.721669063163626 2.7168225926622434
101 1 5.786919517325258 12.939945421059548 4.528037654437073
102 1 8.267027881893226 11.830807242111586 3.622430123549658
103 1 3.306811152757291 11.830807242111588 3.622430123549658
104 2 10.747136246461192 8.503392705267704 0.9056075308874139
105 1 10.747136246461192 10.721669063163626 2.7168225926622434
106 1 8.267027881893226 9.612530884215664 1.8112150617748286
107 1 23.5610294633957 28.28302356317301 19.300935555973467
108 1 10.747136246461192 12.939945421059548 4.528037654437073
109 1 8.267027881893226 14.04908360000751 6.433645185324487
110 1 23.5610294633957 32.71957627896486 23.923365679523123
111 1 26.041137827963663 29.392161742120976 21.20654308686088
112 1 26.041137827963666 31.6104381000169 23.01775814863571
113 1 28.521246192531635 30.501299921068934 22.112150617748295
114 1 23.5610294633957 30.501299921068934 22.112150617748295
115 1 25.214435039774344 31.98015082633288 19.300935555973464
116 1 31.001354557099596 29.392161742120976 21.20654308686088
117 1 28.521246192531635 28.28302356317301 19.300935555973464
118 2 26.041137827963666 33.82871445791282 24.82897321041054
119 1 25.214435039774344 36.41670354212473 23.923365679523123
120 1 31.001354557099596 31.610438100016893 23.017758148635707
121 2 31.001354557099603 33.82871445791282 24.82897321041054
122 1 28.521246192531635 32.71957627896486 23.923365679523126
123 1 27.69454340434231 33.08928900528085 21.20654308686088
124 1 27.694543404342312 35.30756536317677 23.01775814863571
125 1 30.17465176891028 34.198427184228805 22.112150617748295
126 1 25.214435039774344 34.198427184228805 22.112150617748295
127 1 26.86784061615299 35.67727808949275 19.300935555973464
128 1 32.65476013347825 33.08928900528085 21.20654308686088
129 1 30.17465176891028 31.98015082633288 19.300935555973464
130 2 27.694543404342312 37.52584172107269 24.82897321041054
131 1 26.86784061615299 40.1138308052846 23.923365679523123
132 1 32.65476013347825 35.307565363176764 23.017758148635707
133 2 32.65476013347825 37.52584172107269 24.82897321041054
134 1 30.17465176891028 36.41670354212473 23.923365679523126
135 1 29.347948980720957 36.78641626844072 21.20654308686088
136 1 29.347948980720957 39.00469262633664 23.01775814863571
137 1 31.828057345288926 37.895554447388676 22.112150617748295
138 1 26.86784061615299 37.895554447388676 22.112150617748295
139 1 34.308165709856894 36.78641626844072 21.20654308686088
140 1 31.828057345288926 35.67727808949275 19.300935555973464
141 2 29.347948980720957 41.222968984232566 24.82897321041054
142 1 34.308165709856894 39.004692626336634 23.017758148635707
143 2 34.308165709856894 41.222968984232566 24.82897321041054
144 1 31.828057345288926 40.1138308052846 23.923365679523126
