#Lammps coordinate file for CSL - Axis: [1 1 1]  Angle: (1, 3) -> 59.99999999999999  Plane indices: [0 1 1]  z-position: [4.9336451853244885 14.800935555973464]  Repeats: 1 1 (3, 3) (black, white)  Fixed: 2.228  Boundary equiv: True
144 atoms

2 atom types

0.0 9.920433458271871 xlo xhi
0.0 11.091381789479609 ylo yhi
0.0 19.734580741297954 zlo zhi
4.9602167291359365 16.120704369691797 43.256388978970485 xy xz yz

Atoms

1 1 10.540460549413865 16.082503594745436 5.339252716211904
2 1 15.500677278549798 16.082503594745436 5.339252716211904
3 1 13.020568913981833 17.191641773693398 6.24486024709932
4 1 15.5006772785498 18.300779952641356 7.150467777986734
5 1 18.807488431307092 19.779630857905303 5.339252716211904
6 1 10.540460549413865 18.300779952641356 7.150467777986734
7 1 8.060352184845899 19.409918131589322 8.05607530887415
8 2 10.540460549413865 20.51905631053728 8.961682839761563
9 1 8.060352184845899 17.191641773693398 6.244860247099318
10 2 15.5006772785498 20.51905631053728 8.961682839761563
11 2 13.020568913981833 21.62819448948524 9.867290370648979
12 2 15.500677278549801 22.737332668433204 10.772897901536393
13 1 13.020568913981833 19.409918131589322 8.05607530887415
14 1 13.847271702171154 19.779630857905303 5.339252716211904
15 1 11.367163337603188 20.88876903685327 6.244860247099318
16 1 13.847271702171156 21.997907215801227 7.150467777986734
17 1 18.807488431307092 21.997907215801227 7.150467777986734
18 1 16.327380066739124 23.10704539474919 8.05607530887415
19 2 18.807488431307092 24.21618357369715 8.961682839761563
20 1 16.327380066739124 20.88876903685327 6.24486024709932
21 1 17.154082854928447 23.476758121065174 5.339252716211902
22 1 19.634191219496415 24.58589630001314 6.244860247099318
23 2 10.540460549413867 22.737332668433204 10.772897901536393
24 1 8.0603521848459 23.846470847381163 11.678505432423808
25 1 10.540460549413867 24.955609026329128 12.584112963311222
26 2 8.0603521848459 21.628194489485242 9.867290370648979
27 1 15.500677278549801 24.955609026329128 12.584112963311222
28 1 13.020568913981835 26.064747205277087 13.489720494198638
29 1 15.500677278549801 27.173885384225045 14.395328025086053
30 1 13.020568913981835 23.846470847381163 11.678505432423808
31 2 13.847271702171156 24.21618357369715 8.961682839761563
32 2 11.36716333760319 25.32532175264511 9.867290370648979
33 2 13.847271702171156 26.434459931593075 10.772897901536393
34 1 11.36716333760319 23.107045394749193 8.05607530887415
35 1 12.19386612579251 23.476758121065174 5.339252716211902
36 1 12.19386612579251 25.695034478961098 7.150467777986734
37 2 18.807488431307092 26.434459931593075 10.772897901536393
38 1 16.327380066739124 27.543598110541033 11.678505432423808
39 1 18.807488431307092 28.652736289489 12.584112963311224
40 2 16.327380066739124 25.32532175264511 9.867290370648979
41 1 17.154082854928447 25.695034478961098 7.150467777986734
42 1 14.673974490360479 26.804172657909064 8.05607530887415
43 2 17.154082854928447 27.913310836857022 8.961682839761563
44 1 14.673974490360479 24.58589630001314 6.244860247099318
45 2 19.634191219496415 29.02244901580498 9.867290370648977
46 1 19.634191219496415 26.804172657909056 8.05607530887415
47 1 10.540460549413869 27.173885384225052 14.395328025086052
48 1 8.0603521848459 26.064747205277087 13.489720494198638
49 1 13.847271702171156 28.652736289489 12.584112963311222
50 1 11.367163337603191 29.761874468436957 13.489720494198638
51 1 13.847271702171158 30.871012647384916 14.395328025086053
52 1 11.367163337603191 27.543598110541033 11.678505432423808
53 2 12.19386612579251 27.913310836857022 8.961682839761563
54 2 12.193866125792512 30.131587194752946 10.772897901536393
55 1 18.807488431307092 30.871012647384916 14.395328025086052
56 1 16.327380066739124 29.761874468436957 13.48972049419864
57 2 17.154082854928447 30.131587194752946 10.772897901536393
58 1 14.67397449036048 31.240725373700904 11.678505432423808
59 1 17.154082854928447 32.34986355264887 12.584112963311224
60 2 14.673974490360479 29.02244901580498 9.867290370648979
61 1 19.634191219496415 33.45900173159683 13.489720494198636
62 1 19.63419121949641 31.240725373700904 11.678505432423808
63 1 12.193866125792512 32.34986355264887 12.58411296331122
64 1 12.193866125792512 34.56813991054479 14.395328025086052
65 1 17.154082854928447 34.56813991054479 14.39532802508605
66 1 14.67397449036048 33.45900173159683 13.489720494198638
67 1 0.0 2.218276357895922 1.8112150617748295
68 2 2.4801083645679682 1.109138178947961 0.9056075308874145
69 2 4.960216729135936 0.0 -2.220446049250313e-16
70 2 0.0 0.0 0.0
71 1 0.0 6.654829073687768 4.9336451853244885
72 1 2.4801083645679682 3.327414536843884 2.7168225926622442
73 1 2.4801083645679682 5.545690894739806 4.528037654437073
74 1 4.960216729135936 4.436552715791845 3.6224301235496585
75 1 0.0 4.436552715791845 3.6224301235496585
76 1 1.6534055763786455 5.915403621055794 1.811215061774829
77 2 7.440325093703903 1.109138178947961 0.9056075308874143
78 1 7.440325093703903 3.327414536843884 2.7168225926622442
79 1 4.960216729135936 2.218276357895922 1.811215061774829
80 2 4.133513940946613 4.806265442107832 0.9056075308874143
81 2 6.61362230551458 3.697127263159871 -6.661338147750939e-16
82 2 1.6534055763786455 3.697127263159871 -4.440892098500626e-16
83 1 1.6534055763786455 10.351956336847639 4.9336451853244885
84 1 7.440325093703903 5.545690894739806 4.528037654437073
85 1 4.960216729135936 6.654829073687768 4.9336451853244885
86 1 4.133513940946613 7.024541800003755 2.716822592662244
87 1 4.133513940946613 9.242818157899677 4.528037654437073
88 1 6.61362230551458 8.133679978951715 3.6224301235496585
89 1 1.6534055763786455 8.133679978951717 3.6224301235496585
90 1 3.306811152757291 9.612530884215664 1.811215061774829
91 2 9.093730670082548 4.806265442107832 0.9056075308874141
92 1 9.093730670082547 7.024541800003755 2.716822592662244
93 1 6.61362230551458 5.915403621055793 1.811215061774829
94 2 5.7869195173252574 8.503392705267704 0.9056075308874139
95 2 8.267027881893226 7.394254526319742 -1.1102230246251565e-15
96 2 3.306811152757291 7.394254526319742 -8.881784197001252e-16
97 1 3.306811152757291 14.04908360000751 4.933645185324487
98 1 9.093730670082547 9.242818157899677 4.528037654437073
99 1 6.613622305514581 10.351956336847639 4.9336451853244885
100 1 5.786919517325258 10.721669063163626 2.7168225926622434
101 1 5.786919517325258 12.939945421059548 4.528037654437073
102 1 8.267027881893226 11.830807242111586 3.6224301235496585
103 1 3.306811152757291 11.830807242111588 3.6224301235496585
104 2 10.747136246461192 8.503392705267704 0.9056075308874136
105 1 10.747136246461192 10.721669063163626 2.7168225926622434
106 1 8.267027881893226 9.612530884215664 1.8112150617748286
107 1 16.120704369691794 36.60155990528272 14.800935555973467
108 1 10.747136246461192 12.939945421059548 4.528037654437073
109 1 8.267027881893226 14.04908360000751 4.933645185324487
110 1 16.120704369691794 41.03811262107457 17.923365679523123
111 1 18.600812734259762 37.710698084230685 15.20654308686088
112 1 18.600812734259762 39.92897444212661 17.01775814863571
113 1 21.08092109882773 38.819836263178644 16.112150617748295
114 1 16.120704369691794 38.819836263178644 16.112150617748295
115 1 17.77410994607044 40.29868716844259 14.800935555973464
116 1 23.5610294633957 37.710698084230685 15.20654308686088
117 1 21.08092109882773 36.60155990528272 14.800935555973464
118 2 18.600812734259762 42.147250800022526 18.82897321041054
119 1 17.77410994607044 44.73523988423444 17.923365679523123
120 1 23.5610294633957 39.9289744421266 17.017758148635707
121 2 23.5610294633957 42.147250800022526 18.82897321041054
122 1 21.08092109882773 41.03811262107457 17.923365679523126
123 1 20.254218310638407 41.407825347390556 15.20654308686088
124 1 20.254218310638407 43.62610170528648 17.01775814863571
125 1 22.734326675206376 42.516963526338515 16.112150617748295
126 1 17.77410994607044 42.516963526338515 16.112150617748295
127 1 19.427515522449085 43.99581443160246 14.800935555973464
128 1 25.214435039774344 41.407825347390556 15.20654308686088
129 1 22.734326675206376 40.29868716844259 14.800935555973464
130 2 20.254218310638407 45.8443780631824 18.82897321041054
131 1 19.427515522449085 48.43236714739431 17.923365679523123
132 1 25.214435039774344 43.62610170528647 17.017758148635707
133 2 25.214435039774344 45.8443780631824 18.82897321041054
134 1 22.734326675206376 44.73523988423444 17.923365679523126
135 1 21.907623887017053 45.10495261055043 15.20654308686088
136 1 21.907623887017053 47.32322896844635 17.01775814863571
137 1 24.38773225158502 46.214090789498385 16.112150617748295
138 1 19.427515522449085 46.214090789498385 16.112150617748295
139 1 26.86784061615299 45.10495261055043 15.20654308686088
140 1 24.38773225158502 43.99581443160246 14.800935555973464
141 2 21.907623887017053 49.541505326342275 18.82897321041054
142 1 26.86784061615299 47.323228968446344 17.017758148635707
143 2 26.86784061615299 49.541505326342275 18.82897321041054
144 1 24.38773225158502 48.43236714739431 17.923365679523126
