#Lammps coordinate file for CSL - Axis: [1 1 1]  Angle: (1, 3) -> 59.99999999999999  Plane indices: [0 1 1]  z-position: [4.9336451853244885 14.800935555973464]  Repeats: 1 1 (3, 3) (black, white)  Fixed: 2.228  Boundary equiv: True
144 atoms

2 atom types

0.0 9.920433458271871 xlo xhi
0.0 11.091381789479609 ylo yhi
0.0 19.734580741297954 zlo zhi
4.9602167291359365 18.600812734259765 43.25638897897049 xy xz yz

Atoms

1 1 11.78051473169785 16.082503594745436 5.339252716211904
2 1 16.740731460833782 16.082503594745436 5.339252716211904
3 1 14.260623096265816 17.191641773693398 6.24486024709932
4 1 16.740731460833782 18.300779952641356 7.150467777986734
5 1 20.047542613591073 19.779630857905303 5.339252716211904
6 1 11.780514731697847 18.300779952641356 7.150467777986734
7 1 9.300406367129881 19.409918131589322 8.05607530887415
8 2 11.78051473169785 20.51905631053728 8.961682839761563
9 1 9.300406367129881 17.191641773693398 6.244860247099318
10 2 16.740731460833782 20.51905631053728 8.961682839761563
11 2 14.260623096265817 21.62819448948524 9.867290370648979
12 2 16.740731460833782 22.737332668433204 10.772897901536393
13 1 14.260623096265816 19.409918131589322 8.05607530887415
14 1 15.087325884455137 19.779630857905303 5.339252716211904
15 1 12.607217519887172 20.88876903685327 6.244860247099318
16 1 15.087325884455137 21.997907215801227 7.150467777986734
17 1 20.047542613591073 21.997907215801227 7.150467777986734
18 1 17.56743424902311 23.10704539474919 8.05607530887415
19 2 20.047542613591077 24.21618357369715 8.961682839761563
20 1 17.567434249023105 20.88876903685327 6.24486024709932
21 1 18.39413703721243 23.476758121065174 5.339252716211902
22 1 20.8742454017804 24.58589630001314 6.244860247099318
23 2 11.78051473169785 22.737332668433204 10.772897901536393
24 1 9.300406367129881 23.846470847381163 11.678505432423808
25 1 11.78051473169785 24.955609026329128 12.584112963311222
26 2 9.300406367129881 21.628194489485242 9.867290370648979
27 1 16.740731460833786 24.955609026329128 12.584112963311222
28 1 14.260623096265817 26.064747205277087 13.489720494198638
29 1 16.740731460833786 27.173885384225045 14.395328025086053
30 1 14.260623096265817 23.846470847381163 11.678505432423808
31 2 15.087325884455138 24.21618357369715 8.961682839761563
32 2 12.607217519887172 25.32532175264511 9.867290370648979
33 2 15.087325884455138 26.434459931593075 10.772897901536393
34 1 12.607217519887172 23.107045394749193 8.05607530887415
35 1 13.433920308076493 23.476758121065174 5.339252716211902
36 1 13.433920308076493 25.695034478961098 7.150467777986734
37 2 20.047542613591077 26.434459931593075 10.772897901536393
38 1 17.56743424902311 27.543598110541033 11.678505432423808
39 1 20.047542613591077 28.652736289489 12.584112963311224
40 2 17.56743424902311 25.32532175264511 9.867290370648979
41 1 18.39413703721243 25.695034478961098 7.150467777986734
42 1 15.914028672644461 26.804172657909064 8.05607530887415
43 2 18.39413703721243 27.913310836857022 8.961682839761563
44 1 15.914028672644461 24.58589630001314 6.244860247099318
45 2 20.8742454017804 29.02244901580498 9.867290370648977
46 1 20.8742454017804 26.804172657909056 8.05607530887415
47 1 11.78051473169785 27.173885384225052 14.395328025086052
48 1 9.300406367129883 26.064747205277087 13.489720494198638
49 1 15.08732588445514 28.652736289489 12.584112963311222
50 1 12.607217519887174 29.761874468436957 13.489720494198638
51 1 15.08732588445514 30.871012647384916 14.395328025086053
52 1 12.607217519887172 27.543598110541033 11.678505432423808
53 2 13.433920308076495 27.913310836857022 8.961682839761563
54 2 13.433920308076495 30.131587194752946 10.772897901536393
55 1 20.047542613591077 30.871012647384916 14.395328025086052
56 1 17.56743424902311 29.761874468436957 13.48972049419864
57 2 18.39413703721243 30.131587194752946 10.772897901536393
58 1 15.914028672644463 31.240725373700904 11.678505432423808
59 1 18.39413703721243 32.34986355264887 12.584112963311224
60 2 15.914028672644463 29.02244901580498 9.867290370648979
61 1 20.874245401780396 33.45900173159683 13.489720494198636
62 1 20.874245401780392 31.240725373700904 11.678505432423808
63 1 13.433920308076495 32.34986355264887 12.58411296331122
64 1 13.433920308076495 34.56813991054479 14.395328025086052
65 1 18.39413703721243 34.56813991054479 14.39532802508605
66 1 15.914028672644463 33.45900173159683 13.489720494198638
67 1 0.0 2.218276357895922 1.8112150617748295
68 2 2.4801083645679682 1.109138178947961 0.9056075308874147
69 2 4.960216729135936 0.0 -2.220446049250313e-16
70 2 0.0 0.0 0.0
71 1 0.0 6.654829073687768 4.9336451853244885
72 1 2.4801083645679682 3.327414536843884 2.7168225926622442
73 1 2.4801083645679682 5.545690894739806 4.528037654437073
74 1 4.960216729135936 4.436552715791845 3.6224301235496585
75 1 0.0 4.436552715791845 3.6224301235496585
76 1 1.6534055763786455 5.915403621055794 1.811215061774829
77 2 7.440325093703903 1.109138178947961 0.9056075308874145
78 1 7.440325093703903 3.327414536843884 2.7168225926622442
79 1 4.960216729135936 2.218276357895922 1.811215061774829
80 2 4.133513940946613 4.806265442107832 0.9056075308874143
81 2 6.61362230551458 3.697127263159871 -6.661338147750939e-16
82 2 1.6534055763786455 3.697127263159871 -4.440892098500626e-16
83 1 1.6534055763786455 10.351956336847639 4.9336451853244885
84 1 7.440325093703903 5.545690894739806 4.528037654437073
85 1 4.960216729135936 6.654829073687768 4.9336451853244885
86 1 4.133513940946613 7.024541800003755 2.716822592662244
87 1 4.133513940946613 9.242818157899677 4.528037654437073
88 1 6.61362230551458 8.133679978951715 3.6224301235496585
89 1 1.6534055763786455 8.133679978951717 3.6224301235496585
90 1 3.306811152757291 9.612530884215664 1.811215061774829
91 2 9.093730670082548 4.806265442107832 0.9056075308874143
92 1 9.093730670082547 7.024541800003755 2.716822592662244
93 1 6.61362230551458 5.915403621055793 1.811215061774829
94 2 5.7869195173252574 8.503392705267704 0.9056075308874139
95 2 8.267027881893226 7.394254526319742 -9.992007221626409e-16
96 2 3.306811152757291 7.394254526319742 -7.771561172376096e-16
97 1 3.306811152757291 14.04908360000751 4.933645185324487
98 1 9.093730670082547 9.242818157899677 4.528037654437073
99 1 6.613622305514581 10.351956336847639 4.9336451853244885
100 1 5.786919517325258 10.721669063163626 2.7168225926622434
101 1 5.786919517325258 12.939945421059548 4.528037654437073
102 1 8.267027881893226 11.830807242111586 3.6224301235496585
103 1 3.306811152757291 11.830807242111588 3.6224301235496585
104 2 10.747136246461192 8.503392705267704 0.9056075308874139
105 1 10.747136246461192 10.721669063163626 2.7168225926622434
106 1 8.267027881893226 9.612530884215664 1.8112150617748286
107 1 18.600812734259762 36.60155990528272 14.800935555973467
108 1 10.747136246461192 12.939945421059548 4.528037654437073
109 1 8.267027881893226 14.04908360000751 4.933645185324487
110 1 18.600812734259762 41.03811262107457 17.923365679523123
111 1 21.080921098827726 37.710698084230685 15.20654308686088
112 1 21.08092109882773 39.92897444212661 17.01775814863571
113 1 23.561029463395695 38.819836263178644 16.112150617748295
114 1 18.600812734259762 38.819836263178644 16.112150617748295
115 1 20.254218310638407 40.29868716844259 14.800935555973464
116 1 26.04113782796366 37.710698084230685 15.20654308686088
117 1 23.561029463395695 36.60155990528272 14.800935555973464
118 2 21.08092109882773 42.147250800022526 18.82897321041054
119 1 20.254218310638407 44.73523988423444 17.923365679523123
120 1 26.04113782796366 39.9289744421266 17.017758148635707
121 2 26.041137827963666 42.147250800022526 18.82897321041054
122 1 23.5610294633957 41.03811262107457 17.923365679523126
123 1 22.734326675206372 41.407825347390556 15.20654308686088
124 1 22.734326675206376 43.62610170528648 17.01775814863571
125 1 25.21443503977434 42.516963526338515 16.112150617748295
126 1 20.254218310638407 42.516963526338515 16.112150617748295
127 1 21.907623887017053 43.99581443160246 14.800935555973464
128 1 27.694543404342312 41.407825347390556 15.20654308686088
129 1 25.21443503977434 40.29868716844259 14.800935555973464
130 2 22.734326675206376 45.8443780631824 18.82897321041054
131 1 21.907623887017053 48.43236714739431 17.923365679523123
132 1 27.694543404342312 43.62610170528647 17.017758148635707
133 2 27.694543404342312 45.8443780631824 18.82897321041054
134 1 25.214435039774344 44.73523988423444 17.923365679523126
135 1 24.387732251585017 45.10495261055043 15.20654308686088
136 1 24.38773225158502 47.32322896844635 17.01775814863571
137 1 26.86784061615299 46.214090789498385 16.112150617748295
138 1 21.907623887017053 46.214090789498385 16.112150617748295
139 1 29.347948980720957 45.10495261055043 15.20654308686088
140 1 26.86784061615299 43.99581443160246 14.800935555973464
141 2 24.38773225158502 49.541505326342275 18.82897321041054
142 1 29.347948980720957 47.323228968446344 17.017758148635707
143 2 29.347948980720957 49.541505326342275 18.82897321041054
144 1 26.86784061615299 48.43236714739431 17.923365679523126
