ITEM: TIMESTEP
0
ITEM: NUMBER OF ATOMS
144
ITEM: BOX BOUNDS xy xz yz pp pp pp
0.0000000000000000e+00 2.5421110736821674e+01 4.9602167291359365e+00
0.0000000000000000e+00 5.0188502597395242e+01 1.0540460549413869e+01
0.0000000000000000e+00 2.2734580741297954e+01 3.9097120807915630e+01
ITEM: ATOMS id type x y z c_peatom
69 2 4.96022 0 0 -3.36905
70 2 0 0 0 -3.36905
81 2 6.61362 3.69713 0 -3.36905
82 2 11.5738 3.69713 0 -3.36905
80 2 4.13351 4.80627 0.905608 -3.3643
86 1 4.13351 7.02454 2.71682 -3.35328
88 1 6.61362 8.13368 3.62243 -3.33706
91 2 9.09373 4.80627 0.905608 -3.3643
92 1 9.09373 7.02454 2.71682 -3.35328
93 1 6.61362 5.9154 1.81122 -3.37352
94 2 5.78692 8.50339 0.905608 -3.36351
95 2 8.26703 7.39425 0 -3.36905
76 1 11.5738 5.9154 1.81122 -3.37352
89 1 11.5738 8.13368 3.62243 -3.33706
96 2 13.2272 7.39425 0 -3.36905
104 2 10.7471 8.50339 0.905608 -3.36351
87 1 4.13351 9.24282 4.52804 -3.18748
68 2 7.44033 12.2005 0.905608 -3.36363
79 1 9.92043 13.3097 1.81122 -3.36836
98 1 9.09373 9.24282 4.52804 -3.18748
100 1 5.78692 10.7217 2.71682 -3.36422
101 1 5.78692 12.9399 4.52804 -3.25632
102 1 8.26703 11.8308 3.62243 -3.34991
106 1 8.26703 9.61253 1.81122 -3.37475
67 1 14.8807 13.3097 1.81122 -3.36836
77 2 12.4005 12.2005 0.905608 -3.36363
90 1 13.2272 9.61253 1.81122 -3.37475
103 1 13.2272 11.8308 3.62243 -3.34991
105 1 10.7471 10.7217 2.71682 -3.36422
108 1 10.7471 12.9399 4.52804 -3.25632
72 1 7.44033 14.4188 2.71682 -3.37591
73 1 7.44033 16.6371 4.52804 -3.29548
74 1 9.92043 15.5279 3.62243 -3.35194
75 1 14.8807 15.5279 3.62243 -3.35194
78 1 12.4005 14.4188 2.71682 -3.37591
84 1 12.4005 16.6371 4.52804 -3.29548
99 1 6.61362 10.352 5.68365 -2.94237
83 1 11.5738 10.352 5.68365 -2.94237
1 1 7.75034 14.0029 6.83925 -0.754489
5 1 6.09693 17.7 6.83925 -1.98998
6 1 7.75034 16.2211 8.65047 -3.38471
9 1 5.27023 15.112 7.74486 -3.33416
85 1 9.92043 17.7462 5.68365 -1.97812
109 1 8.26703 14.0491 5.68365 -0.727351
2 1 12.7106 14.0029 6.83925 -0.754489
3 1 10.2304 15.112 7.74486 -3.33416
4 1 12.7106 16.2211 8.65047 -3.38471
14 1 11.0571 17.7 6.83925 -1.98998
71 1 14.8807 17.7462 5.68365 -1.97812
97 1 13.2272 14.0491 5.68365 -0.727351
15 1 8.57704 18.8091 7.74486 -3.26189
35 1 9.40374 21.3971 6.83925 -3.03672
16 1 11.0571 19.9183 8.65047 -3.37234
20 1 13.5373 18.8091 7.74486 -3.26189
21 1 14.364 21.3971 6.83925 -3.03672
44 1 11.8839 22.5063 7.74486 -3.08815
17 1 16.0174 19.9183 8.65047 -3.37234
22 1 16.8441 22.5063 7.74486 -3.08815
36 1 9.40374 23.6154 8.65047 -3.36188
41 1 14.364 23.6154 8.65047 -3.36188
7 1 5.27023 17.3303 9.55608 -3.38984
13 1 10.2304 17.3303 9.55608 -3.38984
8 2 7.75034 18.4394 10.4617 -3.36138
34 1 8.57704 21.0274 9.55608 -3.37597
10 2 12.7106 18.4394 10.4617 -3.36138
18 1 13.5373 21.0274 9.55608 -3.37597
31 2 11.0571 22.1365 10.4617 -3.37974
19 2 16.0174 22.1365 10.4617 -3.37974
32 2 8.57704 23.2457 11.3673 -3.37022
52 1 8.57704 25.464 13.1785 -3.38109
53 2 9.40374 25.8337 10.4617 -3.37109
33 2 11.0571 24.3548 12.2729 -3.37109
38 1 13.5373 25.464 13.1785 -3.38109
40 2 13.5373 23.2457 11.3673 -3.37022
42 1 11.8839 24.7245 9.55608 -3.38109
43 2 14.364 25.8337 10.4617 -3.37109
60 2 11.8839 26.9428 11.3673 -3.37022
37 2 16.0174 24.3548 12.2729 -3.37109
45 2 16.8441 26.9428 11.3673 -3.37022
46 1 16.8441 24.7245 9.55608 -3.38109
54 2 9.40374 28.052 12.2729 -3.37974
11 2 15.1907 30.6399 11.3673 -3.36635
23 2 12.7106 31.7491 12.2729 -3.36138
26 2 10.2304 30.6399 11.3673 -3.36635
57 2 14.364 28.052 12.2729 -3.37974
58 1 11.8839 29.1611 13.1785 -3.37597
12 2 17.6708 31.7491 12.2729 -3.36138
62 1 16.8441 29.1611 13.1785 -3.37597
30 1 15.1907 32.8582 13.1785 -3.38984
24 1 20.1509 32.8582 13.1785 -3.38984
49 1 11.0571 26.5731 14.0841 -3.36188
39 1 16.0174 26.5731 14.0841 -3.36188
50 1 8.57704 27.6822 14.9897 -3.08815
63 1 9.40374 30.2702 14.0841 -3.37234
51 1 11.0571 28.7914 15.8953 -3.03672
56 1 13.5373 27.6822 14.9897 -3.08815
59 1 14.364 30.2702 14.0841 -3.37234
66 1 11.8839 31.3794 14.9897 -3.26189
55 1 16.0174 28.7914 15.8953 -3.03672
61 1 16.8441 31.3794 14.9897 -3.26189
25 1 12.7106 33.9674 14.0841 -3.38471
28 1 15.1907 35.0765 14.9897 -3.33416
47 1 12.7106 36.1856 15.8953 -0.754489
65 1 14.364 32.4885 15.8953 -1.98998
107 1 10.5405 32.4423 17.0509 -1.97812
115 1 12.1939 36.1394 17.0509 -0.727351
27 1 17.6708 33.9674 14.0841 -3.38471
29 1 17.6708 36.1856 15.8953 -0.754489
48 1 20.1509 35.0765 14.9897 -3.33416
64 1 19.3242 32.4885 15.8953 -1.98998
117 1 15.5007 32.4423 17.0509 -1.97812
129 1 17.1541 36.1394 17.0509 -0.727351
127 1 13.8473 39.8365 17.0509 -2.94237
140 1 18.8075 39.8365 17.0509 -2.94237
111 1 13.0206 33.5514 18.2065 -3.29548
112 1 13.0206 35.7697 20.0178 -3.37591
114 1 10.5405 34.6606 19.1122 -3.35194
113 1 15.5007 34.6606 19.1122 -3.35194
116 1 17.9808 33.5514 18.2065 -3.29548
120 1 17.9808 35.7697 20.0178 -3.37591
110 1 10.5405 36.8788 20.9234 -3.36836
118 2 13.0206 37.988 21.829 -3.36363
119 1 12.1939 40.576 20.9234 -3.37475
123 1 14.674 37.2486 18.2065 -3.25632
124 1 14.674 39.4668 20.0178 -3.36422
126 1 12.1939 38.3577 19.1122 -3.34991
121 2 17.9808 37.988 21.829 -3.36363
122 1 15.5007 36.8788 20.9234 -3.36836
125 1 17.1541 38.3577 19.1122 -3.34991
128 1 19.6342 37.2486 18.2065 -3.25632
132 1 19.6342 39.4668 20.0178 -3.36422
134 1 17.1541 40.576 20.9234 -3.37475
135 1 16.3274 40.9457 18.2065 -3.18748
139 1 21.2876 40.9457 18.2065 -3.18748
130 2 14.674 41.6851 21.829 -3.36351
131 1 13.8473 44.2731 20.9234 -3.37352
138 1 13.8473 42.0548 19.1122 -3.33706
133 2 19.6342 41.6851 21.829 -3.36351
136 1 16.3274 43.164 20.0178 -3.35328
137 1 18.8075 42.0548 19.1122 -3.33706
141 2 16.3274 45.3822 21.829 -3.3643
144 1 18.8075 44.2731 20.9234 -3.37352
142 1 21.2876 43.164 20.0178 -3.35328
143 2 21.2876 45.3822 21.829 -3.3643
