#Lammps coordinate file for CSL - Axis: [1 1 1]  Angle: (1, 3) -> 59.99999999999999  Plane indices: [0 1 1]  z-position: [5.6836451853244885 17.050935555973464]  Repeats: 1 1 (3, 3) (black, white)  Fixed: 2.228  Boundary equiv: True
144 atoms

2 atom types

0.0 9.920433458271871 xlo xhi
0.0 11.091381789479609 ylo yhi
0.0 22.734580741297954 zlo zhi
4.9602167291359365 5.580243820277933 39.09712080791563 xy xz yz

Atoms

1 1 5.270230274706933 14.002869509218009 6.839252716211904
2 1 10.230447003842865 14.002869509218009 6.839252716211904
3 1 7.750338639274901 15.11200768816597 7.74486024709932
4 1 10.230447003842867 16.221145867113933 8.650467777986734
5 1 13.537258156600158 17.69999677237788 6.839252716211904
6 1 5.2702302747069325 16.221145867113933 8.650467777986734
7 1 2.790121910138966 17.330284046061895 9.55607530887415
8 2 5.270230274706933 18.439422225009853 10.461682839761563
9 1 2.790121910138966 15.11200768816597 7.744860247099319
10 2 10.230447003842867 18.439422225009853 10.461682839761563
11 2 7.750338639274902 19.548560403957815 11.367290370648979
12 2 10.230447003842869 20.657698582905777 12.272897901536393
13 1 7.750338639274901 17.330284046061895 9.55607530887415
14 1 8.577041427464222 17.69999677237788 6.839252716211904
15 1 6.096933062896256 18.80913495132584 7.744860247099319
16 1 8.577041427464223 19.918273130273803 8.650467777986734
17 1 13.537258156600158 19.9182731302738 8.650467777986734
18 1 11.057149792032192 21.027411309221762 9.55607530887415
19 2 13.53725815660016 22.136549488169724 10.461682839761563
20 1 11.05714979203219 18.80913495132584 7.74486024709932
21 1 11.883852580221514 21.39712403553775 6.839252716211903
22 1 14.363960944789483 22.506262214485712 7.744860247099318
23 2 5.270230274706934 20.657698582905777 12.272897901536393
24 1 2.790121910138967 21.76683676185374 13.178505432423808
25 1 5.270230274706934 22.8759749408017 14.084112963311222
26 2 2.790121910138967 19.548560403957815 11.367290370648979
27 1 10.230447003842869 22.8759749408017 14.084112963311222
28 1 7.7503386392749025 23.98511311974966 14.989720494198638
29 1 10.230447003842869 25.09425129869762 15.895328025086053
30 1 7.7503386392749025 21.76683676185374 13.178505432423808
31 2 8.577041427464223 22.136549488169724 10.461682839761563
32 2 6.096933062896257 23.245687667117686 11.367290370648979
33 2 8.577041427464223 24.354825846065648 12.272897901536393
34 1 6.096933062896257 21.027411309221765 9.55607530887415
35 1 6.923635851085578 21.39712403553775 6.839252716211903
36 1 6.923635851085578 23.615400393433674 8.650467777986734
37 2 13.53725815660016 24.354825846065648 12.272897901536393
38 1 11.057149792032192 25.46396402501361 13.178505432423808
39 1 13.53725815660016 26.57310220396157 14.084112963311224
40 2 11.057149792032192 23.245687667117686 11.367290370648979
41 1 11.883852580221514 23.61540039343367 8.650467777986734
42 1 9.403744215653546 24.724538572381636 9.55607530887415
43 2 11.883852580221514 25.833676751329595 10.461682839761563
44 1 9.403744215653546 22.506262214485712 7.744860247099319
45 2 14.363960944789483 26.942814930277557 11.367290370648977
46 1 14.363960944789483 24.724538572381633 9.55607530887415
47 1 5.270230274706935 25.094251298697625 15.895328025086052
48 1 2.790121910138968 23.985113119749663 14.989720494198638
49 1 8.577041427464223 26.57310220396157 14.084112963311222
50 1 6.096933062896259 27.68224038290953 14.989720494198638
51 1 8.577041427464225 28.791378561857492 15.895328025086053
52 1 6.096933062896258 25.46396402501361 13.178505432423808
53 2 6.923635851085579 25.833676751329595 10.461682839761563
54 2 6.92363585108558 28.05195310922552 12.272897901536393
55 1 13.53725815660016 28.791378561857492 15.895328025086052
56 1 11.057149792032192 27.68224038290953 14.98972049419864
57 2 11.883852580221514 28.05195310922552 12.272897901536393
58 1 9.403744215653548 29.16109128817348 13.178505432423808
59 1 11.883852580221516 30.270229467121442 14.084112963311224
60 2 9.403744215653546 26.942814930277557 11.367290370648979
61 1 14.363960944789481 31.3793676460694 14.989720494198636
62 1 14.36396094478948 29.161091288173477 13.178505432423808
63 1 6.92363585108558 30.270229467121442 14.08411296331122
64 1 6.92363585108558 32.48850582501736 15.895328025086052
65 1 11.883852580221516 32.48850582501736 15.89532802508605
66 1 9.403744215653548 31.3793676460694 14.989720494198638
67 1 0.0 2.218276357895923 1.8112150617748295
68 2 2.480108364567968 1.109138178947961 0.9056075308874147
69 2 4.960216729135936 -8.881784197001252e-16 -1.6653345369377348e-16
70 2 0.0 0.0 0.0
71 1 4.440892098500626e-16 6.654829073687768 5.6836451853244885
72 1 2.480108364567968 3.327414536843884 2.7168225926622442
73 1 2.4801083645679682 5.545690894739806 4.528037654437074
74 1 4.960216729135936 4.436552715791845 3.622430123549659
75 1 4.440892098500626e-16 4.436552715791845 3.622430123549659
76 1 1.6534055763786455 5.915403621055794 1.811215061774829
77 2 7.440325093703903 1.109138178947961 0.9056075308874145
78 1 7.440325093703903 3.3274145368438837 2.7168225926622442
79 1 4.960216729135936 2.218276357895922 1.8112150617748293
80 2 4.133513940946613 4.806265442107832 0.9056075308874143
81 2 6.61362230551458 3.6971272631598704 -6.106226635438361e-16
82 2 1.6534055763786453 3.697127263159871 -3.885780586188048e-16
83 1 1.6534055763786455 10.351956336847639 5.6836451853244885
84 1 7.440325093703903 5.545690894739806 4.528037654437074
85 1 4.960216729135936 6.654829073687768 5.6836451853244885
86 1 4.133513940946613 7.024541800003755 2.716822592662244
87 1 4.133513940946613 9.242818157899677 4.528037654437074
88 1 6.61362230551458 8.133679978951715 3.6224301235496585
89 1 1.6534055763786457 8.133679978951717 3.6224301235496585
90 1 3.3068111527572905 9.612530884215664 1.8112150617748288
91 2 9.093730670082548 4.806265442107832 0.9056075308874143
92 1 9.093730670082547 7.024541800003755 2.716822592662244
93 1 6.61362230551458 5.915403621055793 1.8112150617748288
94 2 5.7869195173252574 8.503392705267704 0.9056075308874139
95 2 8.267027881893226 7.394254526319742 -9.43689570931383e-16
96 2 3.3068111527572905 7.394254526319742 -7.216449660063518e-16
97 1 3.306811152757291 14.04908360000751 5.683645185324488
98 1 9.093730670082547 9.242818157899677 4.528037654437074
99 1 6.613622305514581 10.351956336847639 5.6836451853244885
100 1 5.786919517325258 10.721669063163626 2.7168225926622434
101 1 5.786919517325258 12.939945421059548 4.528037654437073
102 1 8.267027881893226 11.830807242111586 3.622430123549658
103 1 3.306811152757291 11.830807242111588 3.622430123549658
104 2 10.747136246461192 8.503392705267704 0.9056075308874139
105 1 10.747136246461192 10.721669063163626 2.7168225926622434
106 1 8.267027881893226 9.612530884215664 1.8112150617748286
107 1 5.58024382027793 32.442291734227865 17.050935555973467
108 1 10.747136246461192 12.939945421059548 4.528037654437073
109 1 8.267027881893226 14.04908360000751 5.683645185324488
110 1 5.58024382027793 36.87884445001971 20.923365679523123
111 1 8.060352184845897 33.55142991317583 18.20654308686088
112 1 8.060352184845899 35.769706271071755 20.01775814863571
113 1 10.540460549413865 34.66056809212379 19.112150617748295
114 1 5.58024382027793 34.66056809212379 19.112150617748295
115 1 7.233649396656575 36.139418997387736 17.050935555973464
116 1 13.020568913981833 33.55142991317583 18.20654308686088
117 1 10.540460549413865 32.442291734227865 17.050935555973464
118 2 8.060352184845899 37.98798262896767 21.82897321041054
119 1 7.233649396656576 40.57597171317958 20.923365679523123
120 1 13.020568913981833 35.76970627107175 20.017758148635707
121 2 13.020568913981833 37.98798262896767 21.82897321041054
122 1 10.540460549413865 36.87884445001971 20.923365679523126
123 1 9.713757761224542 37.2485571763357 18.20654308686088
124 1 9.713757761224544 39.46683353423162 20.01775814863571
125 1 12.19386612579251 38.35769535528366 19.112150617748295
126 1 7.233649396656576 38.35769535528366 19.112150617748295
127 1 8.88705497303522 39.83654626054761 17.050935555973464
128 1 14.673974490360479 37.2485571763357 18.20654308686088
129 1 12.19386612579251 36.139418997387736 17.050935555973464
130 2 9.713757761224544 41.68510989212754 21.82897321041054
131 1 8.887054973035221 44.27309897633945 20.923365679523123
132 1 14.673974490360479 39.46683353423162 20.017758148635707
133 2 14.673974490360479 41.68510989212754 21.82897321041054
134 1 12.19386612579251 40.57597171317958 20.923365679523126
135 1 11.367163337603188 40.945684439495565 18.20654308686088
136 1 11.36716333760319 43.16396079739149 20.01775814863571
137 1 13.847271702171156 42.05482261844353 19.112150617748295
138 1 8.887054973035221 42.05482261844353 19.112150617748295
139 1 16.327380066739124 40.945684439495565 18.20654308686088
140 1 13.847271702171156 39.83654626054761 17.050935555973464
141 2 11.36716333760319 45.38223715528741 21.82897321041054
142 1 16.327380066739124 43.16396079739149 20.017758148635707
143 2 16.327380066739124 45.38223715528741 21.82897321041054
144 1 13.847271702171156 44.27309897633945 20.923365679523126
