#Lammps coordinate file for CSL - Axis: [1 1 1]  Angle: (1, 3) -> 59.99999999999999  Plane indices: [0 1 1]  z-position: [6.1836451853244885 18.550935555973464]  Repeats: 1 1 (3, 3) (black, white)  Fixed: 2.228  Boundary equiv: True
144 atoms

2 atom types

0.0 9.920433458271871 xlo xhi
0.0 11.091381789479609 ylo yhi
0.0 24.734580741297954 zlo zhi
4.9602167291359365 24.801083645679682 48.80207987371029 xy xz yz

Atoms

1 1 14.88065018740781 18.855349042115336 7.839252716211904
2 1 19.840866916543742 18.855349042115336 7.839252716211904
3 1 17.360758551975778 19.964487221063298 8.74486024709932
4 1 19.840866916543742 21.07362540001126 9.650467777986734
5 1 23.147678069301033 22.552476305275206 7.839252716211904
6 1 14.880650187407808 21.07362540001126 9.650467777986734
7 1 12.400541822839841 22.18276357895922 10.55607530887415
8 2 14.88065018740781 23.291901757907183 11.461682839761563
9 1 12.400541822839841 19.9644872210633 8.744860247099318
10 2 19.840866916543742 23.291901757907183 11.461682839761563
11 2 17.360758551975778 24.401039936855142 12.367290370648979
12 2 19.840866916543742 25.510178115803104 13.272897901536393
13 1 17.360758551975778 22.18276357895922 10.55607530887415
14 1 18.187461340165097 22.552476305275206 7.839252716211904
15 1 15.707352975597132 23.66161448422317 8.744860247099318
16 1 18.187461340165097 24.77075266317113 9.650467777986734
17 1 23.147678069301033 24.77075266317113 9.650467777986734
18 1 20.66756970473307 25.87989084211909 10.55607530887415
19 2 23.147678069301037 26.98902902106705 11.461682839761563
20 1 20.667569704733065 23.66161448422317 8.74486024709932
21 1 21.49427249292239 26.249603568435077 7.839252716211902
22 1 23.97438085749036 27.35874174738304 8.744860247099318
23 2 14.88065018740781 25.510178115803104 13.272897901536393
24 1 12.400541822839841 26.619316294751066 14.178505432423808
25 1 14.88065018740781 27.728454473699028 15.084112963311222
26 2 12.400541822839841 24.401039936855142 12.367290370648979
27 1 19.840866916543746 27.728454473699028 15.084112963311222
28 1 17.360758551975778 28.837592652646986 15.989720494198638
29 1 19.840866916543746 29.946730831594948 16.89532802508605
30 1 17.360758551975778 26.619316294751066 14.178505432423808
31 2 18.1874613401651 26.989029021067054 11.461682839761563
32 2 15.707352975597132 28.098167200015013 12.367290370648979
33 2 18.1874613401651 29.207305378962975 13.272897901536393
34 1 15.707352975597132 25.879890842119092 10.55607530887415
35 1 16.534055763786455 26.249603568435077 7.839252716211902
36 1 16.534055763786455 28.467879926331 9.650467777986734
37 2 23.147678069301037 29.207305378962975 13.272897901536393
38 1 20.66756970473307 30.316443557910937 14.178505432423808
39 1 23.147678069301037 31.4255817368589 15.084112963311224
40 2 20.66756970473307 28.098167200015013 12.367290370648979
41 1 21.49427249292239 28.467879926330998 9.650467777986734
42 1 19.014164128354423 29.577018105278963 10.55607530887415
43 2 21.49427249292239 30.68615628422692 11.461682839761563
44 1 19.014164128354423 27.35874174738304 8.744860247099318
45 2 23.97438085749036 31.795294463174884 12.367290370648977
46 1 23.97438085749036 29.57701810527896 10.55607530887415
47 1 14.88065018740781 29.94673083159495 16.89532802508605
48 1 12.400541822839843 28.83759265264699 15.989720494198638
49 1 18.1874613401651 31.4255817368589 15.084112963311222
50 1 15.707352975597134 32.53471991580686 15.989720494198638
51 1 18.1874613401651 33.64385809475482 16.89532802508605
52 1 15.707352975597132 30.316443557910937 14.178505432423808
53 2 16.534055763786455 30.68615628422692 11.461682839761563
54 2 16.534055763786455 32.90443264212284 13.272897901536393
55 1 23.147678069301037 33.64385809475482 16.89532802508605
56 1 20.66756970473307 32.53471991580686 15.98972049419864
57 2 21.49427249292239 32.90443264212284 13.272897901536393
58 1 19.014164128354423 34.01357082107081 14.178505432423808
59 1 21.49427249292239 35.12270900001877 15.084112963311224
60 2 19.014164128354423 31.795294463174884 12.367290370648979
61 1 23.974380857490356 36.23184717896673 15.989720494198636
62 1 23.974380857490353 34.0135708210708 14.178505432423808
63 1 16.534055763786455 35.12270900001877 15.08411296331122
64 1 16.534055763786455 37.34098535791469 16.89532802508605
65 1 21.49427249292239 37.34098535791469 16.895328025086048
66 1 19.014164128354423 36.23184717896673 15.989720494198638
67 1 0.0 2.218276357895922 1.8112150617748295
68 2 2.4801083645679682 1.109138178947962 0.9056075308874147
69 2 4.960216729135936 0.0 -2.220446049250313e-16
70 2 0.0 0.0 0.0
71 1 0.0 6.654829073687768 6.1836451853244885
72 1 2.4801083645679682 3.327414536843884 2.7168225926622442
73 1 2.4801083645679682 5.545690894739806 4.528037654437075
74 1 4.960216729135936 4.436552715791845 3.622430123549659
75 1 0.0 4.436552715791845 3.622430123549659
76 1 1.6534055763786455 5.915403621055794 1.811215061774829
77 2 7.440325093703903 1.109138178947962 0.9056075308874146
78 1 7.440325093703903 3.327414536843884 2.7168225926622442
79 1 4.960216729135936 2.218276357895922 1.8112150617748293
80 2 4.133513940946612 4.806265442107832 0.9056075308874144
81 2 6.61362230551458 3.697127263159871 -4.440892098500626e-16
82 2 1.6534055763786455 3.697127263159871 -2.220446049250313e-16
83 1 1.6534055763786455 10.351956336847639 6.1836451853244885
84 1 7.440325093703903 5.545690894739806 4.528037654437075
85 1 4.960216729135936 6.654829073687768 6.1836451853244885
86 1 4.133513940946612 7.024541800003755 2.716822592662244
87 1 4.133513940946612 9.242818157899677 4.528037654437075
88 1 6.61362230551458 8.133679978951715 3.6224301235496585
89 1 1.6534055763786455 8.133679978951717 3.6224301235496585
90 1 3.306811152757291 9.612530884215664 1.8112150617748288
91 2 9.093730670082548 4.806265442107832 0.9056075308874143
92 1 9.093730670082547 7.024541800003755 2.716822592662244
93 1 6.61362230551458 5.915403621055793 1.8112150617748288
94 2 5.7869195173252574 8.503392705267704 0.905607530887414
95 2 8.267027881893226 7.394254526319742 -8.881784197001252e-16
96 2 3.306811152757291 7.394254526319742 -6.661338147750939e-16
97 1 3.306811152757291 14.04908360000751 6.1836451853244885
98 1 9.093730670082547 9.242818157899677 4.528037654437075
99 1 6.613622305514581 10.351956336847639 6.1836451853244885
100 1 5.786919517325258 10.721669063163626 2.7168225926622434
101 1 5.786919517325258 12.939945421059548 4.528037654437073
102 1 8.267027881893226 11.830807242111586 3.622430123549658
103 1 3.306811152757291 11.830807242111588 3.622430123549658
104 2 10.747136246461192 8.503392705267704 0.9056075308874139
105 1 10.747136246461192 10.721669063163626 2.7168225926622434
106 1 8.267027881893226 9.612530884215664 1.8112150617748286
107 1 24.801083645679682 42.14725080002252 18.550935555973467
108 1 10.747136246461192 12.939945421059548 4.528037654437073
109 1 8.267027881893226 14.04908360000751 6.1836451853244885
110 1 24.801083645679682 46.58380351581437 22.923365679523123
111 1 27.281192010247647 43.25638897897049 20.20654308686088
112 1 27.28119201024765 45.47466533686641 22.01775814863571
113 1 29.76130037481562 44.36552715791845 21.112150617748295
114 1 24.801083645679682 44.36552715791845 21.112150617748295
115 1 26.454489222058328 45.84437806318239 18.550935555973464
116 1 32.24140873938358 43.25638897897049 20.20654308686088
117 1 29.76130037481562 42.14725080002252 18.550935555973464
118 2 27.28119201024765 47.692941694762325 23.82897321041054
119 1 26.454489222058328 50.28093077897424 22.923365679523123
120 1 32.24140873938358 45.47466533686641 22.017758148635707
121 2 32.24140873938359 47.692941694762325 23.82897321041054
122 1 29.76130037481562 46.58380351581437 22.923365679523126
123 1 28.934597586626296 46.95351624213036 20.20654308686088
124 1 28.934597586626296 49.17179260002628 22.01775814863571
125 1 31.414705951194264 48.06265442107832 21.112150617748295
126 1 26.454489222058328 48.06265442107832 21.112150617748295
127 1 28.107894798436973 49.54150532634226 18.550935555973464
128 1 33.89481431576223 46.95351624213036 20.20654308686088
129 1 31.414705951194264 45.84437806318239 18.550935555973464
130 2 28.934597586626296 51.390068957922196 23.82897321041054
131 1 28.107894798436973 53.97805804213411 22.923365679523123
132 1 33.89481431576223 49.17179260002628 22.017758148635707
133 2 33.89481431576223 51.390068957922196 23.82897321041054
134 1 31.414705951194264 50.28093077897424 22.923365679523126
135 1 30.58800316300494 50.65064350529023 20.20654308686088
136 1 30.58800316300494 52.86891986318615 22.01775814863571
137 1 33.06811152757291 51.75978168423819 21.112150617748295
138 1 28.107894798436973 51.75978168423819 21.112150617748295
139 1 35.54821989214088 50.65064350529023 20.20654308686088
140 1 33.06811152757291 49.54150532634226 18.550935555973464
141 2 30.58800316300494 55.08719622108208 23.82897321041054
142 1 35.54821989214088 52.86891986318615 22.017758148635707
143 2 35.54821989214088 55.08719622108208 23.82897321041054
144 1 33.06811152757291 53.97805804213411 22.923365679523126
