ITEM: TIMESTEP
0
ITEM: NUMBER OF ATOMS
144
ITEM: BOX BOUNDS xy xz yz pp pp pp
0.0000000000000000e+00 4.3401896379939444e+01 4.9602167291359365e+00
0.0000000000000000e+00 5.7120616215819993e+01 2.8521246192531635e+01
0.0000000000000000e+00 2.0734580741297954e+01 4.6029234426340381e+01
ITEM: ATOMS id type x y z c_peatom
70 2 0 0 0 -3.34019
82 2 1.65341 3.69713 0 -3.34517
69 2 4.96022 4.92923e-16 0 -3.34019
81 2 6.61362 3.69713 0 -3.34517
80 2 4.13351 4.80627 0.905608 -3.34747
88 1 6.61362 8.13368 3.62243 -3.43494
91 2 9.09373 4.80627 0.905608 -3.34747
92 1 9.09373 7.02454 2.71682 -3.36365
93 1 6.61362 5.9154 1.81122 -3.36151
94 2 5.78692 8.50339 0.905608 -3.34713
95 2 8.26703 7.39425 0 -3.34517
76 1 11.5738 5.9154 1.81122 -3.36151
86 1 14.0539 7.02454 2.71682 -3.36365
89 1 11.5738 8.13368 3.62243 -3.43494
96 2 13.2272 7.39425 0 -3.34517
104 2 10.7471 8.50339 0.905608 -3.34713
68 2 7.44033 12.2005 0.905608 -3.34922
102 1 8.26703 11.8308 3.62243 -3.41663
106 1 8.26703 9.61253 1.81122 -3.33656
77 2 12.4005 12.2005 0.905608 -3.34922
90 1 13.2272 9.61253 1.81122 -3.33656
103 1 13.2272 11.8308 3.62243 -3.41663
105 1 10.7471 10.7217 2.71682 -3.34627
108 1 10.7471 12.9399 4.52804 -3.46463
100 1 15.7074 10.7217 2.71682 -3.34627
101 1 15.7074 12.9399 4.52804 -3.46463
74 1 9.92043 15.5279 3.62243 -3.42447
78 1 12.4005 14.4188 2.71682 -3.3749
79 1 9.92043 13.3097 1.81122 -3.347
84 1 12.4005 16.6371 4.52804 -2.35347
97 1 13.2272 14.0491 5.18365 2.97618
67 1 14.8807 13.3097 1.81122 -3.347
72 1 17.3608 14.4188 2.71682 -3.3749
73 1 17.3608 16.6371 4.52804 -2.35347
75 1 14.8807 15.5279 3.62243 -3.42447
109 1 18.1875 14.0491 5.18365 2.97618
98 1 14.0539 20.3342 4.52804 -2.74436
87 1 19.0142 20.3342 4.52804 -2.74436
21 1 8.4737 13.7718 5.83925 2.86383
2 1 11.7805 17.4689 5.83925 -1.82451
35 1 13.4339 13.7718 5.83925 2.86383
1 1 16.7407 17.4689 5.83925 -1.82451
4 1 11.7805 19.6872 7.65047 -3.44528
7 1 14.2606 20.7963 8.55608 -3.38422
9 1 14.2606 18.5781 6.74486 -2.7411
3 1 19.2208 18.5781 6.74486 -2.7411
5 1 15.0873 21.1661 5.83925 -1.49218
6 1 16.7407 19.6872 7.65047 -3.44528
8 2 16.7407 21.9055 9.46168 -3.35771
13 1 19.2208 20.7963 8.55608 -3.38422
71 1 14.8807 17.7462 5.18365 -2.10647
83 1 16.5341 21.4433 5.18365 -1.66811
10 2 21.7009 21.9055 9.46168 -3.35771
14 1 20.0475 21.1661 5.83925 -1.49218
85 1 19.8409 17.7462 5.18365 -2.10647
99 1 21.4943 21.4433 5.18365 -1.66811
20 1 12.6072 22.2752 6.74486 -2.99242
15 1 17.5674 22.2752 6.74486 -2.99242
17 1 15.0873 23.3843 7.65047 -3.41701
19 2 15.0873 25.6026 9.46168 -3.33141
22 1 15.914 25.9723 6.74486 -3.45906
34 1 17.5674 24.4935 8.55608 -3.37468
16 1 20.0475 23.3843 7.65047 -3.41701
18 1 22.5277 24.4935 8.55608 -3.37468
31 2 20.0475 25.6026 9.46168 -3.33141
44 1 20.8742 25.9723 6.74486 -3.45906
36 1 18.3941 27.0815 7.65047 -3.42373
46 1 15.914 28.1906 8.55608 -3.33758
53 2 18.3941 29.2997 9.46168 -3.33905
41 1 23.3544 27.0815 7.65047 -3.42373
42 1 20.8742 28.1906 8.55608 -3.33758
43 2 23.3544 29.2997 9.46168 -3.33905
32 2 17.5674 26.7117 10.3673 -3.33462
33 2 20.0475 27.8209 11.2729 -3.33905
38 1 22.5277 28.93 12.1785 -3.33758
40 2 22.5277 26.7117 10.3673 -3.33462
49 1 20.0475 30.0392 13.0841 -3.42373
60 2 20.8742 30.4089 10.3673 -3.33462
37 2 25.0078 27.8209 11.2729 -3.33905
39 1 25.0078 30.0392 13.0841 -3.42373
45 2 25.8345 30.4089 10.3673 -3.33462
52 1 27.4879 28.93 12.1785 -3.33758
56 1 22.5277 31.1483 13.9897 -3.45906
57 2 23.3544 31.518 11.2729 -3.33141
58 1 20.8742 32.6271 12.1785 -3.37468
59 1 23.3544 33.7363 13.0841 -3.41701
11 2 24.1811 34.106 10.3673 -3.34177
50 1 27.4879 31.1483 13.9897 -3.45906
54 2 28.3146 31.518 11.2729 -3.33141
61 1 25.8345 34.8454 13.9897 -2.99242
62 1 25.8345 32.6271 12.1785 -3.37468
63 1 28.3146 33.7363 13.0841 -3.41701
26 2 29.1413 34.106 10.3673 -3.34177
66 1 30.7947 34.8454 13.9897 -2.99242
23 2 21.7009 35.2151 11.2729 -3.35771
65 1 23.3544 35.9546 14.8953 -1.49218
12 2 26.6612 35.2151 11.2729 -3.35771
27 1 26.6612 37.4334 13.0841 -3.44528
28 1 24.1811 38.5426 13.9897 -2.7411
30 1 24.1811 36.3243 12.1785 -3.38422
64 1 28.3146 35.9546 14.8953 -1.49218
24 1 29.1413 36.3243 12.1785 -3.38422
25 1 31.6214 37.4334 13.0841 -3.44528
48 1 29.1413 38.5426 13.9897 -2.7411
29 1 26.6612 39.6517 14.8953 -1.82451
47 1 31.6214 39.6517 14.8953 -1.82451
55 1 29.968 43.3488 14.8953 2.86383
51 1 34.9282 43.3488 14.8953 2.86383
107 1 28.5212 39.3744 15.5509 -2.10647
127 1 26.8678 35.6773 15.5509 -1.66811
139 1 24.3877 36.7864 16.2065 -2.74436
117 1 33.4815 39.3744 15.5509 -2.10647
135 1 29.3479 36.7864 16.2065 -2.74436
140 1 31.8281 35.6773 15.5509 -1.66811
110 1 28.5212 43.811 18.9234 -3.347
114 1 28.5212 41.5927 17.1122 -3.42447
116 1 26.0411 40.4835 16.2065 -2.35347
120 1 26.0411 42.7018 18.0178 -3.3749
111 1 31.0014 40.4835 16.2065 -2.35347
112 1 31.0014 42.7018 18.0178 -3.3749
113 1 33.4815 41.5927 17.1122 -3.42447
115 1 30.1747 43.0715 15.5509 2.97618
122 1 33.4815 43.811 18.9234 -3.347
129 1 35.1349 43.0715 15.5509 2.97618
128 1 27.6945 44.1807 16.2065 -3.46463
132 1 27.6945 46.3989 18.0178 -3.34627
118 2 31.0014 44.9201 19.829 -3.34922
119 1 30.1747 47.5081 18.9234 -3.33656
123 1 32.6548 44.1807 16.2065 -3.46463
124 1 32.6548 46.3989 18.0178 -3.34627
126 1 30.1747 45.2898 17.1122 -3.41663
121 2 35.9616 44.9201 19.829 -3.34922
125 1 35.1349 45.2898 17.1122 -3.41663
134 1 35.1349 47.5081 18.9234 -3.33656
130 2 32.6548 48.6172 19.829 -3.34713
131 1 31.8281 51.2052 18.9234 -3.36151
138 1 31.8281 48.9869 17.1122 -3.43494
142 1 29.3479 50.0961 18.0178 -3.36365
133 2 37.615 48.6172 19.829 -3.34713
136 1 34.3082 50.0961 18.0178 -3.36365
137 1 36.7883 48.9869 17.1122 -3.43494
141 2 34.3082 52.3144 19.829 -3.34747
144 1 36.7883 51.2052 18.9234 -3.36151
143 2 39.2684 52.3144 19.829 -3.34747
