LAMMPS (29 Aug 2024 - Update 2)
#---------------------------------------------------------------------------------------------------
# Initilise important features of simulation
#---------------------------------------------------------------------------------------------------
units 		metal	# Use metals units (Ang, ps, eV, bar, etc.)
dimension 	3		# Run the simulation in three dimensions
boundary 	p p p	# Use periodic boundaries in all three dimensions
atom_style 	atomic	#
#box tilt large		# Allow larger than normal tilt factors

variable T_start equal 600
variable T_end equal 200
variable tstep equal 0.002
timestep ${tstep}
timestep 0.002

read_data   lammps.txt	# Read in atom coordinates from a file
Reading data file ...
  triclinic box = (0 0 0) to (9.9204335 11.091382 19.734581) with tilt (4.9602167 11.160488 32.165007)
WARNING: Triclinic box skew is large. LAMMPS will run inefficiently. (src/domain.cpp:221)
  1 by 1 by 1 MPI processor grid
  reading atoms ...
  144 atoms
  read_data CPU = 0.001 seconds

#---------------------------------------------------------------------------------------------------
# Define how the forces between the atoms will be modelled
#---------------------------------------------------------------------------------------------------
pair_style eam/alloy
pair_coeff * * Zope-Ti-Al-2003.eam.alloy.txt Al Al

#---------------------------------------------------------------------------------------------------
# Set behaviour of simulation
#---------------------------------------------------------------------------------------------------
group g_fixed type 2
36 atoms in group g_fixed
group g_other type 1
108 atoms in group g_other
fix f_freeze g_fixed setforce 0.0 0.0 0.0 	# Hold atoms of type 2 fixed in place
#fix f_constrain g_other setforce 0.0 0.0 NULL 	# All atoms of type 1 to move only in z direction

#---------------------------------------------------------------------------------------------------
# Specify what information to write out
#---------------------------------------------------------------------------------------------------
thermo_style custom step atoms temp pe ke etotal fmax
thermo_modify format 6 %20.10f
thermo 1000

#compute statom all stress/atom NULL
compute peatom all pe/atom
dump 1 all custom 100000 dump.* id type x y z c_peatom
dump_modify 1 first yes


#---------------------------------------------------------------------------------------------------
# Initial relaxation
#---------------------------------------------------------------------------------------------------
velocity all set 0.0 0.0 0.0

min_style 	cg
min_modify dmax 0.1
minimize 	0.0 1.0e-6 10000 100000
Neighbor list info ...
  update: every = 1 steps, delay = 0 steps, check = yes
  max neighbors/atom: 2000, page size: 100000
  master list distance cutoff = 8.724884
  ghost atom cutoff = 8.724884
  binsize = 4.362442, bins = 6 10 5
  1 neighbor lists, perpetual/occasional/extra = 1 0 0
  (1) pair eam/alloy, perpetual
      attributes: half, newton on
      pair build: half/bin/atomonly/newton/tri
      stencil: half/bin/3d/tri
      bin: standard
Per MPI rank memory allocation (min/avg/max) = 4.698 | 4.698 | 4.698 Mbytes
   Step        Atoms         Temp          PotEng         KinEng         TotEng          Fmax     
         0         144   0             -364.96485      0                  -364.9648513294  23.462622    
        92         144   0             -464.89154      0                  -464.8915425723  9.7135703e-08
Loop time of 0.0193152 on 1 procs for 92 steps with 144 atoms

99.1% CPU use with 1 MPI tasks x no OpenMP threads

Minimization stats:
  Stopping criterion = force tolerance
  Energy initial, next-to-last, final = 
     -364.964851329415  -464.891542572346  -464.891542572349
  Force two-norm initial, final = 80.72524 6.9682174e-07
  Force max component initial, final = 23.462622 9.7135703e-08
  Final line search alpha, max atom move = 1 9.7135703e-08
  Iterations, force evaluations = 92 170

MPI task timing breakdown:
Section |  min time  |  avg time  |  max time  |%varavg| %total
---------------------------------------------------------------
Pair    | 0.016685   | 0.016685   | 0.016685   |   0.0 | 86.38
Neigh   | 0.0010267  | 0.0010267  | 0.0010267  |   0.0 |  5.32
Comm    | 0.00092596 | 0.00092596 | 0.00092596 |   0.0 |  4.79
Output  | 0          | 0          | 0          |   0.0 |  0.00
Modify  | 2.6073e-05 | 2.6073e-05 | 2.6073e-05 |   0.0 |  0.13
Other   |            | 0.0006511  |            |       |  3.37

Nlocal:            144 ave         144 max         144 min
Histogram: 1 0 0 0 0 0 0 0 0 0
Nghost:           3068 ave        3068 max        3068 min
Histogram: 1 0 0 0 0 0 0 0 0 0
Neighs:          13136 ave       13136 max       13136 min
Histogram: 1 0 0 0 0 0 0 0 0 0

Total # of neighbors = 13136
Ave neighs/atom = 91.222222
Neighbor list builds = 2
Dangerous builds = 0
#---------------------------------------------------------------------------------------------------
# Anneal boundary structures
#---------------------------------------------------------------------------------------------------
reset_timestep 100000
fix md g_other nvt temp ${T_start} ${T_end} $(100.0*v_tstep)
fix md g_other nvt temp 600 ${T_end} $(100.0*v_tstep)
fix md g_other nvt temp 600 200 $(100.0*v_tstep)
fix md g_other nvt temp 600 200 0.2000000000000000111

velocity all create ${T_start} 4928459 rot yes mom yes dist gaussian
velocity all create 600 4928459 rot yes mom yes dist gaussian
run 10000
Per MPI rank memory allocation (min/avg/max) = 4.954 | 4.954 | 4.954 Mbytes
   Step        Atoms         Temp          PotEng         KinEng         TotEng          Fmax     
    100000         144   600           -464.89154      11.09052           -453.8010221313  9.7135693e-08
    101000         144   578.34159     -457.30094      10.690182          -446.6107624115  1.2529359    
    102000         144   637.15758     -457.08957      11.777349          -445.3122188759  1.4977475    
    103000         144   536.15689     -458.01714      9.9104316          -448.1067084717  1.6798278    
    104000         144   488.51763     -458.5188       9.0298578          -449.4889386512  1.4289172    
    105000         144   501.66594     -459.98666      9.272894           -450.7137709735  1.3698022    
    106000         144   483.41146     -460.43867      8.9354745          -451.5031989234  1.1975543    
    107000         144   397.69647     -460.72086      7.3511014          -453.3697570983  1.3527708    
    108000         144   413.23109     -460.95943      7.6382463          -453.3211872180  1.0442508    
    109000         144   359.56534     -461.98224      6.6462779          -455.3359603209  1.0892855    
    110000         144   302.50428     -462.25263      5.5915498          -456.6610815188  0.83933239   
Loop time of 1.01308 on 1 procs for 10000 steps with 144 atoms

Performance: 1705.684 ns/day, 0.014 hours/ns, 9870.854 timesteps/s, 1.421 Matom-step/s
98.5% CPU use with 1 MPI tasks x no OpenMP threads

MPI task timing breakdown:
Section |  min time  |  avg time  |  max time  |%varavg| %total
---------------------------------------------------------------
Pair    | 0.91903    | 0.91903    | 0.91903    |   0.0 | 90.72
Neigh   | 0.016887   | 0.016887   | 0.016887   |   0.0 |  1.67
Comm    | 0.053867   | 0.053867   | 0.053867   |   0.0 |  5.32
Output  | 8.4166e-05 | 8.4166e-05 | 8.4166e-05 |   0.0 |  0.01
Modify  | 0.010712   | 0.010712   | 0.010712   |   0.0 |  1.06
Other   |            | 0.0125     |            |       |  1.23

Nlocal:            144 ave         144 max         144 min
Histogram: 1 0 0 0 0 0 0 0 0 0
Nghost:           3064 ave        3064 max        3064 min
Histogram: 1 0 0 0 0 0 0 0 0 0
Neighs:          13168 ave       13168 max       13168 min
Histogram: 1 0 0 0 0 0 0 0 0 0

Total # of neighbors = 13168
Ave neighs/atom = 91.444444
Neighbor list builds = 32
Dangerous builds = 0
unfix md

#---------------------------------------------------------------------------------------------------
# Final relaxation
#---------------------------------------------------------------------------------------------------
velocity all set 0.0 0.0 0.0

min_style 	cg
min_modify dmax 0.1
minimize 	0.0 1.0e-6 10000 100000
Per MPI rank memory allocation (min/avg/max) = 6.079 | 6.079 | 6.079 Mbytes
   Step        Atoms         Temp          PotEng         KinEng         TotEng          Fmax     
    110000         144   0             -462.25263      0                  -462.2526313295  0.83933239   
    110067         144   0             -465.16864      0                  -465.1686350505  1.5899305e-07
Loop time of 0.0145504 on 1 procs for 67 steps with 144 atoms

98.4% CPU use with 1 MPI tasks x no OpenMP threads

Minimization stats:
  Stopping criterion = force tolerance
  Energy initial, next-to-last, final = 
     -462.252631329496   -465.16863505047  -465.168635050474
  Force two-norm initial, final = 5.6910687 9.5161246e-07
  Force max component initial, final = 0.83933239 1.5899305e-07
  Final line search alpha, max atom move = 1 1.5899305e-07
  Iterations, force evaluations = 67 133

MPI task timing breakdown:
Section |  min time  |  avg time  |  max time  |%varavg| %total
---------------------------------------------------------------
Pair    | 0.013196   | 0.013196   | 0.013196   |   0.0 | 90.69
Neigh   | 0          | 0          | 0          |   0.0 |  0.00
Comm    | 0.00069714 | 0.00069714 | 0.00069714 |   0.0 |  4.79
Output  | 0          | 0          | 0          |   0.0 |  0.00
Modify  | 2.0498e-05 | 2.0498e-05 | 2.0498e-05 |   0.0 |  0.14
Other   |            | 0.0006369  |            |       |  4.38

Nlocal:            144 ave         144 max         144 min
Histogram: 1 0 0 0 0 0 0 0 0 0
Nghost:           3044 ave        3044 max        3044 min
Histogram: 1 0 0 0 0 0 0 0 0 0
Neighs:          13124 ave       13124 max       13124 min
Histogram: 1 0 0 0 0 0 0 0 0 0

Total # of neighbors = 13124
Ave neighs/atom = 91.138889
Neighbor list builds = 0
Dangerous builds = 0

Total wall time: 0:00:01
