ITEM: TIMESTEP
63
ITEM: NUMBER OF ATOMS
144
ITEM: BOX BOUNDS xy xz yz pp pp pp
0.0000000000000000e+00 2.7281192010247658e+01 4.9602167291359365e+00
0.0000000000000000e+00 5.1574925321080187e+01 1.2400541822839848e+01
0.0000000000000000e+00 1.9734580741297954e+01 4.0483543531600581e+01
ITEM: ATOMS id type x y z c_peatom
70 2 0 0 0 -3.30625
69 2 4.96022 4.55503e-16 0 -3.30625
81 2 6.61362 3.69713 0 -3.30498
82 2 11.5738 3.69713 0 -3.30498
80 2 4.13351 4.80627 0.905608 -3.30906
86 1 4.1724 6.92012 2.47091 -3.24931
88 1 6.71381 7.95675 3.25161 -3.21903
91 2 9.09373 4.80627 0.905608 -3.30906
92 1 9.13262 6.92012 2.47091 -3.24931
93 1 6.61571 5.84941 1.63524 -3.284
94 2 5.78692 8.50339 0.905608 -3.32444
95 2 8.26703 7.39425 0 -3.30498
76 1 11.5759 5.84941 1.63524 -3.284
89 1 11.674 7.95675 3.25161 -3.21903
96 2 13.2272 7.39425 0 -3.30498
104 2 10.7471 8.50339 0.905608 -3.32444
68 2 7.44033 12.2005 0.905608 -3.2909
100 1 5.75656 10.7372 2.57109 -3.33501
101 1 5.69537 12.9603 4.32031 -3.31319
102 1 8.24163 11.7422 3.394 -3.29878
106 1 8.24578 9.60555 1.64891 -3.3053
109 1 8.04378 13.8071 5.02009 -2.96392
77 2 12.4005 12.2005 0.905608 -3.2909
79 1 9.89748 13.2739 1.67181 -3.31287
90 1 13.206 9.60555 1.64891 -3.3053
97 1 13.004 13.8071 5.02009 -2.96392
103 1 13.2018 11.7422 3.394 -3.29878
105 1 10.7168 10.7372 2.57109 -3.33501
108 1 10.6556 12.9603 4.32031 -3.31319
67 1 14.8577 13.2739 1.67181 -3.31287
72 1 7.42103 14.3326 2.49719 -3.25958
73 1 7.54734 16.4694 4.11358 -3.29033
74 1 9.9744 15.4089 3.36028 -3.27837
78 1 12.3812 14.3326 2.49719 -3.25958
84 1 12.5076 16.4694 4.11358 -3.29033
75 1 14.9346 15.4089 3.36028 -3.27837
87 1 4.26502 9.01058 4.03447 -3.2411
98 1 9.22524 9.01058 4.03447 -3.2411
35 1 9.4848 22.1594 5.65163 -3.17733
99 1 11.7882 21.0814 4.85432 -3.19197
21 1 14.445 22.1594 5.65163 -3.17733
83 1 16.7484 21.0814 4.85432 -3.19197
1 1 9.40089 15.3237 5.95671 -2.77037
5 1 7.48904 18.5852 5.7875 -3.29976
6 1 8.91644 17.1417 7.49272 -3.07461
7 1 6.31463 18.0721 8.25227 -3.27273
9 1 6.6997 15.9712 6.57291 -3.17785
2 1 14.3611 15.3237 5.95671 -2.77037
3 1 11.6599 15.9712 6.57291 -3.17785
4 1 13.8767 17.1417 7.49272 -3.07461
13 1 11.2748 18.0721 8.25227 -3.27273
14 1 12.4493 18.5852 5.7875 -3.29976
85 1 10.0472 17.6243 4.94845 -3.27001
71 1 15.0074 17.6243 4.94845 -3.27001
8 2 8.68038 19.1326 8.96168 -3.22673
10 2 13.6406 19.1326 8.96168 -3.22673
15 1 9.85439 19.6698 6.60411 -3.2659
16 1 12.1884 20.6647 7.41503 -3.17963
31 2 11.9872 22.8298 8.96168 -3.24898
34 1 9.56747 21.7952 8.23888 -3.28011
44 1 12.2097 23.0893 6.47825 -2.99306
17 1 17.1487 20.6647 7.41503 -3.17963
18 1 14.5277 21.7952 8.23888 -3.28011
19 2 16.9474 22.8298 8.96168 -3.24898
20 1 14.8146 19.6698 6.60411 -3.2659
22 1 17.17 23.0893 6.47825 -2.99306
36 1 10.1524 24.3341 7.21666 -3.21874
42 1 12.8043 25.3635 8.1281 -3.31515
53 2 10.3338 26.5269 8.96168 -3.35301
41 1 15.1126 24.3341 7.21666 -3.21874
43 2 15.294 26.5269 8.96168 -3.35301
46 1 17.7645 25.3635 8.1281 -3.31515
26 2 16.1207 20.2418 9.86729 -3.32202
32 2 9.50708 23.9389 9.86729 -3.303
33 2 11.9872 25.048 10.7729 -3.35301
49 1 12.1686 27.2408 12.5179 -3.21874
52 1 9.51665 26.2114 11.6065 -3.31515
60 2 12.8139 27.636 9.86729 -3.303
37 2 16.9474 25.048 10.7729 -3.35301
38 1 14.4769 26.2114 11.6065 -3.31515
39 1 17.1288 27.2408 12.5179 -3.21874
40 2 14.4673 23.9389 9.86729 -3.303
45 2 17.7741 27.636 9.86729 -3.303
23 2 13.6406 32.4423 10.7729 -3.22673
50 1 10.1112 28.4857 13.2563 -2.99306
54 2 10.3338 28.7452 10.7729 -3.24898
58 1 12.7535 29.7797 11.4957 -3.28011
63 1 10.1325 30.9102 12.3195 -3.17963
66 1 12.4666 31.9051 13.1305 -3.2659
11 2 11.1605 20.2418 9.86729 -3.32202
56 1 15.0715 28.4857 13.2563 -2.99306
57 2 15.294 28.7452 10.7729 -3.24898
59 1 15.0928 30.9102 12.3195 -3.17963
61 1 17.4268 31.9051 13.1305 -3.2659
62 1 17.7137 29.7797 11.4957 -3.28011
12 2 18.6008 32.4423 10.7729 -3.22673
25 1 13.4045 34.4332 12.2419 -3.07461
28 1 15.6213 35.6037 13.1617 -3.17785
30 1 16.0063 33.5028 11.4823 -3.27273
47 1 12.9201 36.2512 13.7779 -2.77037
65 1 14.8319 32.9897 13.9471 -3.29976
117 1 17.234 33.9506 14.7861 -3.27001
24 1 20.9666 33.5028 11.4823 -3.27273
27 1 18.3648 34.4332 12.2419 -3.07461
29 1 17.8803 36.2512 13.7779 -2.77037
48 1 20.5815 35.6037 13.1617 -3.17785
64 1 19.7922 32.9897 13.9471 -3.29976
51 1 12.8362 29.4156 14.0829 -3.17733
115 1 14.2772 37.7678 14.7145 -2.96392
127 1 10.5327 30.4935 14.8803 -3.19197
55 1 17.7964 29.4156 14.0829 -3.17733
129 1 19.2374 37.7678 14.7145 -2.96392
140 1 15.493 30.4935 14.8803 -3.19197
135 1 18.056 42.5643 15.7001 -3.2411
139 1 23.0162 42.5643 15.7001 -3.2411
107 1 12.2738 33.9506 14.7861 -3.27001
114 1 12.3466 36.1661 16.3743 -3.27837
111 1 14.7736 35.1056 15.621 -3.29033
112 1 14.8999 37.2423 17.2374 -3.25958
113 1 17.3068 36.1661 16.3743 -3.27837
116 1 19.7339 35.1056 15.621 -3.29033
120 1 19.8602 37.2423 17.2374 -3.25958
110 1 12.4235 38.301 18.0628 -3.31287
118 2 14.8807 39.3744 18.829 -3.2909
119 1 14.0752 41.9694 18.0857 -3.3053
122 1 17.3837 38.301 18.0628 -3.31287
123 1 16.6256 38.6146 15.4143 -3.31319
124 1 16.5644 40.8377 17.1635 -3.33501
126 1 14.0793 39.8327 16.3406 -3.29878
121 2 19.8409 39.3744 18.829 -3.2909
125 1 19.0396 39.8327 16.3406 -3.29878
128 1 21.5858 38.6146 15.4143 -3.31319
132 1 21.5246 40.8377 17.1635 -3.33501
134 1 19.0354 41.9694 18.0857 -3.3053
130 2 16.5341 43.0715 18.829 -3.32444
131 1 15.7053 45.7255 18.0993 -3.284
136 1 18.1486 44.6548 17.2637 -3.24931
138 1 15.6072 43.6182 16.483 -3.21903
141 2 18.1875 46.7687 18.829 -3.30906
133 2 21.4943 43.0715 18.829 -3.32444
137 1 20.5674 43.6182 16.483 -3.21903
144 1 20.6655 45.7255 18.0993 -3.284
142 1 23.1088 44.6548 17.2637 -3.24931
143 2 23.1477 46.7687 18.829 -3.30906
