#Lammps coordinate file for CSL - Axis: [1 1 1]  Angle: (1, 3) -> 59.99999999999999  Plane indices: [0 1 1]  z-position: [5.4336451853244885 16.300935555973464]  Repeats: 1 1 (3, 3) (black, white)  Fixed: 2.228  Boundary equiv: True
144 atoms

2 atom types

0.0 9.920433458271871 xlo xhi
0.0 11.091381789479609 ylo yhi
0.0 21.734580741297954 zlo zhi
4.9602167291359365 15.500677278549809 41.86996625528553 xy xz yz

Atoms

1 1 10.230447003842869 15.38929223290296 6.339252716211904
2 1 15.190663732978802 15.389292232902958 6.339252716211904
3 1 12.710555368410837 16.49843041185092 7.24486024709932
4 1 15.190663732978804 17.60756859079888 8.150467777986734
5 1 18.497474885736096 19.086419496062828 6.339252716211904
6 1 10.230447003842869 17.60756859079888 8.150467777986734
7 1 7.7503386392749025 18.716706769746843 9.05607530887415
8 2 10.230447003842869 19.825844948694805 9.961682839761563
9 1 7.7503386392749025 16.498430411850922 7.244860247099319
10 2 15.190663732978804 19.825844948694805 9.961682839761563
11 2 12.710555368410837 20.934983127642763 10.867290370648979
12 2 15.190663732978805 22.044121306590725 11.772897901536393
13 1 12.710555368410837 18.716706769746843 9.05607530887415
14 1 13.537258156600158 19.086419496062828 6.339252716211904
15 1 11.057149792032192 20.19555767501079 7.244860247099319
16 1 13.53725815660016 21.30469585395875 8.150467777986734
17 1 18.497474885736096 21.30469585395875 8.150467777986734
18 1 16.017366521168128 22.413834032906713 9.05607530887415
19 2 18.497474885736096 23.522972211854672 9.961682839761563
20 1 16.017366521168128 20.19555767501079 7.24486024709932
21 1 16.84406930935745 22.7835467592227 6.339252716211903
22 1 19.32417767392542 23.89268493817066 7.244860247099318
23 2 10.23044700384287 22.044121306590725 11.772897901536393
24 1 7.750338639274903 23.153259485538687 12.678505432423808
25 1 10.23044700384287 24.26239766448665 13.584112963311222
26 2 7.750338639274903 20.934983127642766 10.867290370648979
27 1 15.190663732978805 24.26239766448665 13.584112963311222
28 1 12.710555368410839 25.371535843434607 14.489720494198638
29 1 15.190663732978805 26.48067402238257 15.395328025086053
30 1 12.710555368410839 23.153259485538687 12.678505432423808
31 2 13.53725815660016 23.522972211854675 9.961682839761563
32 2 11.057149792032194 24.632110390802634 10.867290370648979
33 2 13.53725815660016 25.741248569750596 11.772897901536393
34 1 11.057149792032194 22.413834032906713 9.05607530887415
35 1 11.883852580221514 22.7835467592227 6.339252716211903
36 1 11.883852580221514 25.001823117118622 8.150467777986734
37 2 18.497474885736096 25.741248569750596 11.772897901536393
38 1 16.017366521168128 26.850386748698558 12.678505432423808
39 1 18.497474885736096 27.95952492764652 13.584112963311224
40 2 16.017366521168128 24.632110390802634 10.867290370648979
41 1 16.84406930935745 25.00182311711862 8.150467777986734
42 1 14.363960944789483 26.110961296066584 9.05607530887415
43 2 16.84406930935745 27.220099475014543 9.961682839761563
44 1 14.363960944789483 23.89268493817066 7.244860247099319
45 2 19.32417767392542 28.329237653962505 10.867290370648977
46 1 19.32417767392542 26.11096129606658 9.05607530887415
47 1 10.230447003842873 26.480674022382573 15.395328025086052
48 1 7.750338639274904 25.37153584343461 14.489720494198638
49 1 13.53725815660016 27.95952492764652 13.584112963311222
50 1 11.057149792032195 29.068663106594478 14.489720494198638
51 1 13.537258156600162 30.17780128554244 15.395328025086053
52 1 11.057149792032195 26.850386748698558 12.678505432423808
53 2 11.883852580221514 27.220099475014543 9.961682839761563
54 2 11.883852580221516 29.438375832910467 11.772897901536393
55 1 18.497474885736096 30.17780128554244 15.395328025086052
56 1 16.017366521168128 29.068663106594478 14.48972049419864
57 2 16.84406930935745 29.438375832910467 11.772897901536393
58 1 14.363960944789484 30.54751401185843 12.678505432423808
59 1 16.84406930935745 31.65665219080639 13.584112963311224
60 2 14.363960944789483 28.329237653962505 10.867290370648979
61 1 19.32417767392542 32.76579036975435 14.489720494198636
62 1 19.324177673925416 30.547514011858425 12.678505432423808
63 1 11.883852580221516 31.65665219080639 13.58411296331122
64 1 11.883852580221516 33.874928548702314 15.395328025086052
65 1 16.84406930935745 33.874928548702314 15.39532802508605
66 1 14.363960944789484 32.76579036975435 14.489720494198638
67 1 0.0 2.218276357895923 1.8112150617748295
68 2 2.4801083645679682 1.109138178947961 0.9056075308874146
69 2 4.960216729135936 -8.881784197001252e-16 -1.9455644930253686e-16
70 2 0.0 0.0 0.0
71 1 0.0 6.654829073687768 5.4336451853244885
72 1 2.4801083645679682 3.327414536843884 2.7168225926622442
73 1 2.4801083645679682 5.545690894739806 4.528037654437074
74 1 4.960216729135936 4.436552715791845 3.622430123549659
75 1 0.0 4.436552715791845 3.622430123549659
76 1 1.6534055763786455 5.915403621055794 1.811215061774829
77 2 7.440325093703903 1.109138178947961 0.9056075308874145
78 1 7.440325093703903 3.327414536843883 2.7168225926622442
79 1 4.960216729135936 2.218276357895922 1.8112150617748293
80 2 4.133513940946613 4.806265442107832 0.9056075308874143
81 2 6.61362230551458 3.6971272631598704 -5.836693479076105e-16
82 2 1.6534055763786455 3.697127263159871 -3.8911289860507373e-16
83 1 1.6534055763786455 10.351956336847639 5.4336451853244885
84 1 7.440325093703903 5.545690894739806 4.528037654437074
85 1 4.960216729135936 6.654829073687768 5.4336451853244885
86 1 4.133513940946613 7.024541800003755 2.716822592662244
87 1 4.133513940946613 9.242818157899677 4.528037654437074
88 1 6.61362230551458 8.133679978951715 3.6224301235496585
89 1 1.6534055763786455 8.133679978951717 3.6224301235496585
90 1 3.306811152757291 9.612530884215664 1.8112150617748288
91 2 9.093730670082548 4.806265442107832 0.9056075308874142
92 1 9.093730670082547 7.024541800003755 2.716822592662244
93 1 6.61362230551458 5.915403621055793 1.8112150617748288
94 2 5.7869195173252574 8.503392705267704 0.9056075308874139
95 2 8.267027881893226 7.394254526319742 -9.727822465126844e-16
96 2 3.306811152757291 7.394254526319742 -7.782257972101475e-16
97 1 3.306811152757291 14.04908360000751 5.433645185324488
98 1 9.093730670082547 9.242818157899677 4.528037654437074
99 1 6.613622305514581 10.351956336847639 5.4336451853244885
100 1 5.786919517325258 10.721669063163626 2.7168225926622434
101 1 5.786919517325258 12.939945421059548 4.528037654437073
102 1 8.267027881893226 11.830807242111586 3.622430123549658
103 1 3.306811152757291 11.830807242111588 3.622430123549658
104 2 10.747136246461192 8.503392705267704 0.9056075308874137
105 1 10.747136246461192 10.721669063163626 2.7168225926622434
106 1 8.267027881893226 9.612530884215664 1.8112150617748286
107 1 15.500677278549803 35.21513718159777 16.300935555973467
108 1 10.747136246461192 12.939945421059548 4.528037654437073
109 1 8.267027881893226 14.04908360000751 5.433645185324488
110 1 15.500677278549803 39.65168989738961 19.923365679523123
111 1 17.98078564311777 36.32427536054573 17.20654308686088
112 1 17.98078564311777 38.54255171844165 19.01775814863571
113 1 20.460894007685738 37.43341353949369 18.112150617748295
114 1 15.500677278549803 37.43341353949369 18.112150617748295
115 1 17.154082854928447 38.91226444475764 16.300935555973464
116 1 22.941002372253706 36.32427536054573 17.20654308686088
117 1 20.460894007685738 35.21513718159777 16.300935555973464
118 2 17.98078564311777 40.760828076337575 20.82897321041054
119 1 17.154082854928447 43.34881716054948 19.923365679523123
120 1 22.941002372253706 38.54255171844165 19.017758148635707
121 2 22.941002372253706 40.760828076337575 20.82897321041054
122 1 20.460894007685738 39.65168989738961 19.923365679523126
123 1 19.634191219496415 40.0214026237056 17.20654308686088
124 1 19.634191219496415 42.23967898160152 19.01775814863571
125 1 22.114299584064383 41.13054080265356 18.112150617748295
126 1 17.154082854928447 41.13054080265356 18.112150617748295
127 1 18.807488431307092 42.60939170791751 16.300935555973464
128 1 24.59440794863235 40.0214026237056 17.20654308686088
129 1 22.114299584064383 38.91226444475764 16.300935555973464
130 2 19.634191219496415 44.457955339497445 20.82897321041054
131 1 18.807488431307092 47.04594442370935 19.923365679523123
132 1 24.59440794863235 42.23967898160152 19.017758148635707
133 2 24.59440794863235 44.457955339497445 20.82897321041054
134 1 22.114299584064383 43.34881716054948 19.923365679523126
135 1 21.28759679587506 43.71852988686547 17.20654308686088
136 1 21.28759679587506 45.93680624476139 19.01775814863571
137 1 23.76770516044303 44.827668065813434 18.112150617748295
138 1 18.807488431307092 44.827668065813434 18.112150617748295
139 1 26.247813525010997 43.71852988686547 17.20654308686088
140 1 23.76770516044303 42.60939170791751 16.300935555973464
141 2 21.28759679587506 48.155082602657316 20.82897321041054
142 1 26.247813525010997 45.93680624476139 19.017758148635707
143 2 26.247813525010997 48.155082602657316 20.82897321041054
144 1 23.76770516044303 47.04594442370935 19.923365679523126
