ITEM: TIMESTEP
57
ITEM: NUMBER OF ATOMS
144
ITEM: BOX BOUNDS xy xz yz pp pp pp
0.0000000000000000e+00 2.2320975281111718e+01 4.9602167291359365e+00
0.0000000000000000e+00 4.3256388978970477e+01 7.4403250937039100e+00
0.0000000000000000e+00 2.5734580741297954e+01 3.2165007189490872e+01
ITEM: ATOMS id type x y z c_peatom
70 2 0 0 0 -3.35318
69 2 4.96022 0 0 -3.35318
81 2 6.61362 3.69713 0 -3.33974
82 2 11.5738 3.69713 0 -3.33974
80 2 4.13351 4.80627 0.905608 -3.34293
86 1 4.17353 6.95383 2.90323 -3.35501
87 1 4.22932 9.10869 4.75957 -3.07655
88 1 6.66352 8.00729 3.78383 -3.30296
93 1 6.62968 5.87196 1.94478 -3.36043
94 2 5.78692 8.50339 0.905608 -3.3441
95 2 8.26703 7.39425 0 -3.33974
76 1 11.5899 5.87196 1.94478 -3.36043
89 1 11.6237 8.00729 3.78383 -3.30296
91 2 9.09373 4.80627 0.905608 -3.34293
92 1 9.13374 6.95383 2.90323 -3.35501
96 2 13.2272 7.39425 0 -3.33974
98 1 9.18953 9.10869 4.75957 -3.07655
104 2 10.7471 8.50339 0.905608 -3.3441
68 2 7.44033 12.2005 0.905608 -3.35733
100 1 5.76857 10.6419 2.81088 -3.39292
101 1 5.69459 12.8118 4.66467 -3.07271
102 1 8.22936 11.762 3.66227 -3.29692
106 1 8.26849 9.54364 1.93161 -3.37897
77 2 12.4005 12.2005 0.905608 -3.35733
79 1 9.93728 13.3041 1.91487 -3.38648
90 1 13.2287 9.54364 1.93161 -3.37897
103 1 13.1896 11.762 3.66227 -3.29692
105 1 10.7288 10.6419 2.81088 -3.39292
108 1 10.6548 12.8118 4.66467 -3.07271
67 1 14.8975 13.3041 1.91487 -3.38648
72 1 7.45798 14.3983 2.86082 -3.39104
73 1 7.55163 16.6001 4.87719 -3.11488
74 1 9.96436 15.4912 3.86054 -3.29585
78 1 12.4182 14.3983 2.86082 -3.39104
84 1 12.5118 16.6001 4.87719 -3.11488
75 1 14.9246 15.4912 3.86054 -3.29585
9 1 3.73858 11.7579 9.1382 -3.04813
1 1 6.20378 10.5972 8.27862 -2.75204
3 1 8.69879 11.7579 9.1382 -3.04813
5 1 4.74285 14.4466 8.15261 -2.86376
6 1 6.23438 12.8183 10.112 -3.29854
99 1 6.74867 10.2239 5.52517 -2.78559
109 1 8.1421 13.913 5.6783 -2.80312
2 1 11.164 10.5972 8.27862 -2.75204
4 1 11.1946 12.8183 10.112 -3.29854
14 1 9.70307 14.4466 8.15261 -2.86376
83 1 11.7089 10.2239 5.52517 -2.78559
97 1 13.1023 13.913 5.6783 -2.80312
15 1 7.14963 15.4159 9.16437 -3.11112
35 1 7.73988 17.9131 7.88535 -2.92047
16 1 9.54508 16.5232 10.0893 -3.31255
20 1 12.1098 15.4159 9.16437 -3.11112
21 1 12.7001 17.9131 7.88535 -2.92047
44 1 10.2521 19.0346 9.02017 -3.11242
85 1 10.1058 17.6673 6.00107 -2.92516
17 1 14.5053 16.5232 10.0893 -3.31255
22 1 15.2124 19.0346 9.02017 -3.11242
71 1 15.066 17.6673 6.00107 -2.92516
36 1 7.82618 20.1543 10.0417 -3.29306
41 1 12.7864 20.1543 10.0417 -3.29306
7 1 3.75312 13.8971 10.9862 -3.38796
13 1 8.71334 13.8971 10.9862 -3.38796
8 2 6.20027 14.9734 11.9617 -3.38623
11 2 8.68038 16.0825 12.8673 -3.36704
34 1 7.03495 17.6057 10.9443 -3.37335
10 2 11.1605 14.9734 11.9617 -3.38623
18 1 11.9952 17.6057 10.9443 -3.37335
31 2 9.50708 18.6705 11.9617 -3.36802
19 2 14.4673 18.6705 11.9617 -3.36802
26 2 13.6406 16.0825 12.8673 -3.36704
32 2 7.02697 19.7796 12.8673 -3.36339
52 1 7.05117 21.9915 14.7419 -3.40238
53 2 7.85368 22.3676 11.9617 -3.38483
33 2 9.50708 20.8888 13.7729 -3.38483
38 1 12.0114 21.9915 14.7419 -3.40238
40 2 11.9872 19.7796 12.8673 -3.36339
42 1 10.3096 21.2649 10.9927 -3.40238
43 2 12.8139 22.3676 11.9617 -3.38483
60 2 10.3338 23.4768 12.8673 -3.36339
37 2 14.4673 20.8888 13.7729 -3.38483
45 2 15.294 23.4768 12.8673 -3.36339
46 1 15.2698 21.2649 10.9927 -3.40238
54 2 7.85368 24.5859 13.7729 -3.36802
23 2 11.1605 28.283 13.7729 -3.38623
57 2 12.8139 24.5859 13.7729 -3.36802
58 1 10.3258 25.6507 14.7903 -3.37335
12 2 16.1207 28.283 13.7729 -3.38623
62 1 15.286 25.6507 14.7903 -3.37335
30 1 13.6076 29.3593 14.7483 -3.38796
24 1 18.5679 29.3593 14.7483 -3.38796
49 1 9.53458 23.1021 15.6929 -3.29306
39 1 14.4948 23.1021 15.6929 -3.29306
50 1 7.10862 24.2218 16.7144 -3.11242
63 1 7.81568 26.7332 15.6453 -3.31255
107 1 7.255 25.5891 19.7335 -2.92516
51 1 9.62088 25.3433 17.8492 -2.92047
56 1 12.0688 24.2218 16.7144 -3.11242
59 1 12.7759 26.7332 15.6453 -3.31255
66 1 10.2111 27.8404 16.5702 -3.11112
117 1 12.2152 25.5891 19.7335 -2.92516
55 1 14.5811 25.3433 17.8492 -2.92047
61 1 15.1713 27.8404 16.5702 -3.11112
25 1 11.1264 30.4381 15.6226 -3.29854
47 1 11.157 32.6592 17.456 -2.75204
65 1 12.6179 28.8098 17.582 -2.86376
115 1 9.21866 29.3434 20.0563 -2.80312
127 1 10.6121 33.0325 20.2094 -2.78559
27 1 16.0866 30.4381 15.6226 -3.29854
28 1 13.6222 31.4985 16.5964 -3.04813
29 1 16.1172 32.6592 17.456 -2.75204
64 1 17.5781 28.8098 17.582 -2.86376
129 1 14.1789 29.3434 20.0563 -2.80312
140 1 15.5723 33.0325 20.2094 -2.78559
48 1 18.5824 31.4985 16.5964 -3.04813
114 1 7.3964 27.7652 21.874 -3.29585
111 1 9.80913 26.6563 20.8574 -3.11488
113 1 12.3566 27.7652 21.874 -3.29585
116 1 14.7693 26.6563 20.8574 -3.11488
110 1 7.42348 29.9523 23.8197 -3.38648
112 1 9.90278 28.8581 22.8738 -3.39104
118 2 9.92043 31.0559 24.829 -3.35733
122 1 12.3837 29.9523 23.8197 -3.38648
123 1 11.6662 30.4446 21.0699 -3.07271
124 1 11.5922 32.6145 22.9237 -3.39292
126 1 9.1314 31.4943 22.0723 -3.29692
120 1 14.863 28.8581 22.8738 -3.39104
121 2 14.8807 31.0559 24.829 -3.35733
125 1 14.0916 31.4943 22.0723 -3.29692
128 1 16.6264 30.4446 21.0699 -3.07271
132 1 16.5524 32.6145 22.9237 -3.39292
119 1 9.09227 33.7127 23.803 -3.37897
130 2 11.5738 34.753 24.829 -3.3441
131 1 10.7311 37.3844 23.7898 -3.36043
135 1 13.1314 34.1477 20.975 -3.07655
136 1 13.1872 36.3026 22.8314 -3.35501
138 1 10.6972 35.2491 21.9507 -3.30296
133 2 16.5341 34.753 24.829 -3.3441
134 1 14.0525 33.7127 23.803 -3.37897
137 1 15.6575 35.2491 21.9507 -3.30296
144 1 15.6913 37.3844 23.7898 -3.36043
139 1 18.0917 34.1477 20.975 -3.07655
142 1 18.1474 36.3026 22.8314 -3.35501
141 2 13.2272 38.4501 24.829 -3.34293
143 2 18.1875 38.4501 24.829 -3.34293
