LAMMPS (29 Aug 2024 - Update 2)
#---------------------------------------------------------------------------------------------------
# Initilise important features of simulation
#---------------------------------------------------------------------------------------------------
units 		metal	# Use metals units (Ang, ps, eV, bar, etc.)
dimension 	3		# Run the simulation in three dimensions
boundary 	p p p	# Use periodic boundaries in all three dimensions
atom_style 	atomic	#
#box tilt large		# Allow larger than normal tilt factors

variable T_start equal 600
variable T_end equal 200
variable tstep equal 0.002
timestep ${tstep}
timestep 0.002

read_data   lammps.txt	# Read in atom coordinates from a file
Reading data file ...
  triclinic box = (0 0 0) to (9.9204335 11.091382 20.734581) with tilt (4.9602167 16.120704 32.165007)
WARNING: Triclinic box skew is large. LAMMPS will run inefficiently. (src/domain.cpp:221)
  1 by 1 by 1 MPI processor grid
  reading atoms ...
  144 atoms
  read_data CPU = 0.001 seconds

#---------------------------------------------------------------------------------------------------
# Define how the forces between the atoms will be modelled
#---------------------------------------------------------------------------------------------------
pair_style eam/alloy
pair_coeff * * Zope-Ti-Al-2003.eam.alloy.txt Al Al

#---------------------------------------------------------------------------------------------------
# Set behaviour of simulation
#---------------------------------------------------------------------------------------------------
group g_fixed type 2
36 atoms in group g_fixed
group g_other type 1
108 atoms in group g_other
fix f_freeze g_fixed setforce 0.0 0.0 0.0 	# Hold atoms of type 2 fixed in place
#fix f_constrain g_other setforce 0.0 0.0 NULL 	# All atoms of type 1 to move only in z direction

#---------------------------------------------------------------------------------------------------
# Specify what information to write out
#---------------------------------------------------------------------------------------------------
thermo_style custom step atoms temp pe ke etotal fmax
thermo_modify format 6 %20.10f
thermo 1000

#compute statom all stress/atom NULL
compute peatom all pe/atom
dump 1 all custom 100000 dump.* id type x y z c_peatom
dump_modify 1 first yes


#---------------------------------------------------------------------------------------------------
# Initial relaxation
#---------------------------------------------------------------------------------------------------
velocity all set 0.0 0.0 0.0

min_style 	cg
min_modify dmax 0.1
minimize 	0.0 1.0e-6 10000 100000
Neighbor list info ...
  update: every = 1 steps, delay = 0 steps, check = yes
  max neighbors/atom: 2000, page size: 100000
  master list distance cutoff = 8.724884
  ghost atom cutoff = 8.724884
  binsize = 4.362442, bins = 8 10 5
  1 neighbor lists, perpetual/occasional/extra = 1 0 0
  (1) pair eam/alloy, perpetual
      attributes: half, newton on
      pair build: half/bin/atomonly/newton/tri
      stencil: half/bin/3d/tri
      bin: standard
Per MPI rank memory allocation (min/avg/max) = 4.697 | 4.697 | 4.697 Mbytes
   Step        Atoms         Temp          PotEng         KinEng         TotEng          Fmax     
         0         144   0             -413.6602       0                  -413.6601998427  11.40647     
        73         144   0             -472.14768      0                  -472.1476831728  1.3520607e-07
Loop time of 0.0142948 on 1 procs for 73 steps with 144 atoms

99.3% CPU use with 1 MPI tasks x no OpenMP threads

Minimization stats:
  Stopping criterion = force tolerance
  Energy initial, next-to-last, final = 
     -413.660199842708  -472.147683172754  -472.147683172753
  Force two-norm initial, final = 52.825376 8.6927767e-07
  Force max component initial, final = 11.40647 1.3520607e-07
  Final line search alpha, max atom move = 1 1.3520607e-07
  Iterations, force evaluations = 73 138

MPI task timing breakdown:
Section |  min time  |  avg time  |  max time  |%varavg| %total
---------------------------------------------------------------
Pair    | 0.012601   | 0.012601   | 0.012601   |   0.0 | 88.15
Neigh   | 0.00047575 | 0.00047575 | 0.00047575 |   0.0 |  3.33
Comm    | 0.00069909 | 0.00069909 | 0.00069909 |   0.0 |  4.89
Output  | 0          | 0          | 0          |   0.0 |  0.00
Modify  | 1.8372e-05 | 1.8372e-05 | 1.8372e-05 |   0.0 |  0.13
Other   |            | 0.0005009  |            |       |  3.50

Nlocal:            144 ave         144 max         144 min
Histogram: 1 0 0 0 0 0 0 0 0 0
Nghost:           2908 ave        2908 max        2908 min
Histogram: 1 0 0 0 0 0 0 0 0 0
Neighs:          12624 ave       12624 max       12624 min
Histogram: 1 0 0 0 0 0 0 0 0 0

Total # of neighbors = 12624
Ave neighs/atom = 87.666667
Neighbor list builds = 1
Dangerous builds = 0
#---------------------------------------------------------------------------------------------------
# Anneal boundary structures
#---------------------------------------------------------------------------------------------------
reset_timestep 100000
fix md g_other nvt temp ${T_start} ${T_end} $(100.0*v_tstep)
fix md g_other nvt temp 600 ${T_end} $(100.0*v_tstep)
fix md g_other nvt temp 600 200 $(100.0*v_tstep)
fix md g_other nvt temp 600 200 0.2000000000000000111

velocity all create ${T_start} 4928459 rot yes mom yes dist gaussian
velocity all create 600 4928459 rot yes mom yes dist gaussian
run 10000
Per MPI rank memory allocation (min/avg/max) = 4.954 | 4.954 | 4.954 Mbytes
   Step        Atoms         Temp          PotEng         KinEng         TotEng          Fmax     
    100000         144   600           -472.14768      11.09052           -461.0571627318  1.3520608e-07
    101000         144   587.64985     -464.4868       10.862238          -453.6245585120  1.2489749    
    102000         144   606.38312     -464.66056      11.208507          -453.4520556714  1.7114866    
    103000         144   510.7802      -464.66457      9.4413637          -455.2232072380  1.5716499    
    104000         144   500.74017     -465.76674      9.2557817          -456.5109602768  1.1658562    
    105000         144   521.0532      -466.51372      9.631252           -456.8824726414  1.3838864    
    106000         144   441.51457     -467.04194      8.1610439          -458.8809002574  1.0989717    
    107000         144   421.07602     -467.21078      7.7832537          -459.4275214178  1.1920581    
    108000         144   383.37361     -468.14499      7.0863548          -461.0586323674  1.2079103    
    109000         144   356.75453     -468.90987      6.5943224          -462.3155477912  0.86414262   
    110000         144   307.28707     -469.5151       5.6799559          -463.8351411112  0.86133745   
Loop time of 0.933739 on 1 procs for 10000 steps with 144 atoms

Performance: 1850.624 ns/day, 0.013 hours/ns, 10709.631 timesteps/s, 1.542 Matom-step/s
99.9% CPU use with 1 MPI tasks x no OpenMP threads

MPI task timing breakdown:
Section |  min time  |  avg time  |  max time  |%varavg| %total
---------------------------------------------------------------
Pair    | 0.83302    | 0.83302    | 0.83302    |   0.0 | 89.21
Neigh   | 0.027861   | 0.027861   | 0.027861   |   0.0 |  2.98
Comm    | 0.050262   | 0.050262   | 0.050262   |   0.0 |  5.38
Output  | 4.1208e-05 | 4.1208e-05 | 4.1208e-05 |   0.0 |  0.00
Modify  | 0.010526   | 0.010526   | 0.010526   |   0.0 |  1.13
Other   |            | 0.01202    |            |       |  1.29

Nlocal:            144 ave         144 max         144 min
Histogram: 1 0 0 0 0 0 0 0 0 0
Nghost:           2914 ave        2914 max        2914 min
Histogram: 1 0 0 0 0 0 0 0 0 0
Neighs:          12612 ave       12612 max       12612 min
Histogram: 1 0 0 0 0 0 0 0 0 0

Total # of neighbors = 12612
Ave neighs/atom = 87.583333
Neighbor list builds = 57
Dangerous builds = 0
unfix md

#---------------------------------------------------------------------------------------------------
# Final relaxation
#---------------------------------------------------------------------------------------------------
velocity all set 0.0 0.0 0.0

min_style 	cg
min_modify dmax 0.1
minimize 	0.0 1.0e-6 10000 100000
Per MPI rank memory allocation (min/avg/max) = 6.079 | 6.079 | 6.079 Mbytes
   Step        Atoms         Temp          PotEng         KinEng         TotEng          Fmax     
    110000         144   0             -469.5151       0                  -469.5150969995  0.86133745   
    110137         144   0             -472.14768      0                  -472.1476831728  2.5363769e-07
Loop time of 0.0262373 on 1 procs for 137 steps with 144 atoms

99.1% CPU use with 1 MPI tasks x no OpenMP threads

Minimization stats:
  Stopping criterion = force tolerance
  Energy initial, next-to-last, final = 
     -469.515096999512  -472.147683172752  -472.147683172751
  Force two-norm initial, final = 4.9717574 9.7082834e-07
  Force max component initial, final = 0.86133745 2.5363769e-07
  Final line search alpha, max atom move = 1 2.5363769e-07
  Iterations, force evaluations = 137 273

MPI task timing breakdown:
Section |  min time  |  avg time  |  max time  |%varavg| %total
---------------------------------------------------------------
Pair    | 0.023913   | 0.023913   | 0.023913   |   0.0 | 91.14
Neigh   | 0          | 0          | 0          |   0.0 |  0.00
Comm    | 0.001332   | 0.001332   | 0.001332   |   0.0 |  5.08
Output  | 0          | 0          | 0          |   0.0 |  0.00
Modify  | 3.7753e-05 | 3.7753e-05 | 3.7753e-05 |   0.0 |  0.14
Other   |            | 0.0009543  |            |       |  3.64

Nlocal:            144 ave         144 max         144 min
Histogram: 1 0 0 0 0 0 0 0 0 0
Nghost:           2896 ave        2896 max        2896 min
Histogram: 1 0 0 0 0 0 0 0 0 0
Neighs:          12652 ave       12652 max       12652 min
Histogram: 1 0 0 0 0 0 0 0 0 0

Total # of neighbors = 12652
Ave neighs/atom = 87.861111
Neighbor list builds = 0
Dangerous builds = 0

Total wall time: 0:00:00
