#Lammps coordinate file for CSL - Axis: [1 1 1]  Angle: (1, 3) -> 59.99999999999999  Plane indices: [0 1 1]  z-position: [5.9336451853244885 17.800935555973464]  Repeats: 1 1 (3, 3) (black, white)  Fixed: 2.228  Boundary equiv: True
144 atoms

2 atom types

0.0 9.920433458271871 xlo xhi
0.0 11.091381789479609 ylo yhi
0.0 23.734580741297954 zlo zhi
4.9602167291359365 14.260623096265821 30.778584465805924 xy xz yz

Atoms

1 1 9.610419912700877 9.843601338163154 7.339252716211904
2 1 14.57063664183681 9.843601338163154 7.339252716211904
3 1 12.090528277268845 10.952739517111114 8.24486024709932
4 1 14.57063664183681 12.061877696059076 9.150467777986734
5 1 17.8774477945941 13.540728601323023 7.339252716211904
6 1 9.610419912700877 12.061877696059076 9.150467777986734
7 1 7.13031154813291 13.171015875007038 10.05607530887415
8 2 9.610419912700877 14.280154053954998 10.961682839761563
9 1 7.13031154813291 10.952739517111116 8.244860247099318
10 2 14.57063664183681 14.280154053954998 10.961682839761563
11 2 12.090528277268845 15.389292232902958 11.867290370648979
12 2 14.570636641836812 16.498430411850922 12.772897901536393
13 1 12.090528277268845 13.171015875007038 10.05607530887415
14 1 12.917231065458164 13.540728601323023 7.339252716211904
15 1 10.4371227008902 14.649866780270985 8.244860247099318
16 1 12.917231065458166 15.759004959218947 9.150467777986734
17 1 17.8774477945941 15.759004959218945 9.150467777986734
18 1 15.397339430026136 16.868143138166907 10.05607530887415
19 2 17.877447794594104 17.97728131711487 10.961682839761563
20 1 15.397339430026133 14.649866780270985 8.24486024709932
21 1 16.22404221821546 17.237855864482896 7.339252716211903
22 1 18.704150582783427 18.346994043430858 8.244860247099318
23 2 9.610419912700877 16.498430411850922 12.772897901536393
24 1 7.1303115481329105 17.607568590798884 13.678505432423808
25 1 9.610419912700877 18.716706769746846 14.584112963311222
26 2 7.1303115481329105 15.38929223290296 11.867290370648979
27 1 14.570636641836813 18.716706769746846 14.584112963311222
28 1 12.090528277268845 19.825844948694805 15.489720494198638
29 1 14.570636641836813 20.934983127642766 16.39532802508605
30 1 12.090528277268845 17.607568590798884 13.678505432423808
31 2 12.917231065458168 17.97728131711487 10.961682839761563
32 2 10.4371227008902 19.08641949606283 11.867290370648979
33 2 12.917231065458168 20.195557675010793 12.772897901536393
34 1 10.4371227008902 16.86814313816691 10.05607530887415
35 1 11.263825489079522 17.237855864482896 7.339252716211903
36 1 11.263825489079522 19.45613222237882 9.150467777986734
37 2 17.877447794594104 20.195557675010793 12.772897901536393
38 1 15.397339430026136 21.304695853958755 13.678505432423808
39 1 17.877447794594104 22.413834032906717 14.584112963311224
40 2 15.397339430026136 19.08641949606283 11.867290370648979
41 1 16.22404221821546 19.456132222378816 9.150467777986734
42 1 13.74393385364749 20.56527040132678 10.05607530887415
43 2 16.22404221821546 21.67440858027474 10.961682839761563
44 1 13.74393385364749 18.346994043430858 8.244860247099318
45 2 18.704150582783427 22.783546759222702 11.867290370648977
46 1 18.704150582783427 20.565270401326778 10.05607530887415
47 1 9.610419912700879 20.93498312764277 16.39532802508605
48 1 7.130311548132911 19.825844948694808 15.489720494198638
49 1 12.917231065458168 22.413834032906717 14.584112963311222
50 1 10.437122700890203 23.522972211854675 15.489720494198638
51 1 12.917231065458168 24.632110390802637 16.39532802508605
52 1 10.437122700890201 21.304695853958755 13.678505432423808
53 2 11.263825489079522 21.67440858027474 10.961682839761563
54 2 11.263825489079522 23.892684938170664 12.772897901536393
55 1 17.877447794594104 24.632110390802637 16.39532802508605
56 1 15.397339430026136 23.522972211854675 15.48972049419864
57 2 16.22404221821546 23.892684938170664 12.772897901536393
58 1 13.74393385364749 25.001823117118626 13.678505432423808
59 1 16.22404221821546 26.110961296066588 14.584112963311224
60 2 13.74393385364749 22.783546759222702 11.867290370648979
61 1 18.704150582783424 27.220099475014546 15.489720494198636
62 1 18.704150582783424 25.001823117118622 13.678505432423808
63 1 11.263825489079522 26.110961296066588 14.58411296331122
64 1 11.263825489079522 28.329237653962508 16.39532802508605
65 1 16.22404221821546 28.329237653962508 16.395328025086048
66 1 13.74393385364749 27.220099475014546 15.489720494198638
67 1 0.0 2.2182763578959226 1.8112150617748295
68 2 2.4801083645679673 1.109138178947961 0.9056075308874146
69 2 4.960216729135936 -4.440892098500626e-16 -2.220446049250313e-16
70 2 0.0 0.0 0.0
71 1 8.881784197001252e-16 6.654829073687768 5.9336451853244885
72 1 2.4801083645679673 3.327414536843884 2.7168225926622442
73 1 2.4801083645679682 5.545690894739806 4.528037654437074
74 1 4.960216729135936 4.436552715791845 3.622430123549659
75 1 8.881784197001252e-16 4.436552715791845 3.622430123549659
76 1 1.6534055763786455 5.915403621055794 1.811215061774829
77 2 7.440325093703903 1.109138178947961 0.9056075308874145
78 1 7.440325093703903 3.3274145368438837 2.7168225926622442
79 1 4.960216729135936 2.218276357895922 1.8112150617748293
80 2 4.133513940946613 4.806265442107832 0.9056075308874143
81 2 6.61362230551458 3.6971272631598704 -6.661338147750939e-16
82 2 1.6534055763786455 3.697127263159871 -4.440892098500626e-16
83 1 1.6534055763786455 10.351956336847639 5.9336451853244885
84 1 7.440325093703903 5.545690894739806 4.528037654437074
85 1 4.960216729135936 6.654829073687768 5.9336451853244885
86 1 4.133513940946613 7.024541800003755 2.7168225926622442
87 1 4.133513940946613 9.242818157899677 4.528037654437074
88 1 6.61362230551458 8.133679978951715 3.622430123549659
89 1 1.6534055763786455 8.133679978951717 3.622430123549659
90 1 3.3068111527572905 9.612530884215664 1.8112150617748288
91 2 9.093730670082548 4.806265442107832 0.9056075308874142
92 1 9.093730670082547 7.024541800003755 2.7168225926622442
93 1 6.61362230551458 5.915403621055793 1.8112150617748288
94 2 5.7869195173252574 8.503392705267704 0.9056075308874139
95 2 8.267027881893226 7.394254526319742 -8.881784197001252e-16
96 2 3.3068111527572905 7.394254526319742 -6.661338147750939e-16
97 1 3.306811152757291 14.04908360000751 5.933645185324488
98 1 9.093730670082547 9.242818157899677 4.528037654437074
99 1 6.613622305514581 10.351956336847639 5.9336451853244885
100 1 5.786919517325258 10.721669063163626 2.7168225926622434
101 1 5.786919517325258 12.939945421059548 4.528037654437073
102 1 8.267027881893226 11.830807242111586 3.622430123549658
103 1 3.306811152757291 11.830807242111588 3.622430123549658
104 2 10.747136246461192 8.503392705267704 0.9056075308874137
105 1 10.747136246461192 10.721669063163626 2.7168225926622434
106 1 8.267027881893226 9.612530884215664 1.8112150617748286
107 1 14.260623096265817 24.12375539211816 17.800935555973467
108 1 10.747136246461192 12.939945421059548 4.528037654437073
109 1 8.267027881893226 14.04908360000751 5.933645185324488
110 1 14.260623096265817 28.560308107910004 21.923365679523123
111 1 16.740731460833786 25.23289357106612 19.20654308686088
112 1 16.740731460833786 27.451169928962045 21.01775814863571
113 1 19.220839825401754 26.342031750014083 20.112150617748295
114 1 14.260623096265817 26.342031750014083 20.112150617748295
115 1 15.914028672644463 27.82088265527803 17.800935555973464
116 1 21.70094818996972 25.23289357106612 19.20654308686088
117 1 19.220839825401754 24.12375539211816 17.800935555973464
118 2 16.740731460833786 29.669446286857966 22.82897321041054
119 1 15.914028672644463 32.257435371069874 21.923365679523123
120 1 21.70094818996972 27.45116992896204 21.017758148635707
121 2 21.700948189969722 29.669446286857966 22.82897321041054
122 1 19.220839825401754 28.560308107910004 21.923365679523126
123 1 18.39413703721243 28.930020834225992 19.20654308686088
124 1 18.39413703721243 31.148297192121916 21.01775814863571
125 1 20.8742454017804 30.039159013173954 20.112150617748295
126 1 15.914028672644463 30.039159013173954 20.112150617748295
127 1 17.56743424902311 31.5180099184379 17.800935555973464
128 1 23.354353766348368 28.930020834225992 19.20654308686088
129 1 20.8742454017804 27.82088265527803 17.800935555973464
130 2 18.39413703721243 33.36657355001783 22.82897321041054
131 1 17.56743424902311 35.95456263422974 21.923365679523123
132 1 23.354353766348368 31.148297192121913 21.017758148635707
133 2 23.354353766348368 33.36657355001783 22.82897321041054
134 1 20.8742454017804 32.257435371069874 21.923365679523126
135 1 20.047542613591077 32.62714809738586 19.20654308686088
136 1 20.047542613591077 34.84542445528178 21.01775814863571
137 1 22.527650978159045 33.73628627633382 20.112150617748295
138 1 17.56743424902311 33.73628627633382 20.112150617748295
139 1 25.007759342727013 32.62714809738586 19.20654308686088
140 1 22.527650978159045 31.5180099184379 17.800935555973464
141 2 20.047542613591077 37.063700813177704 22.82897321041054
142 1 25.007759342727013 34.84542445528178 21.017758148635707
143 2 25.007759342727013 37.063700813177704 22.82897321041054
144 1 22.527650978159045 35.95456263422974 21.923365679523126
