#Lammps coordinate file for CSL - Axis: [1 1 1]  Angle: (1, 3) -> 59.99999999999999  Plane indices: [0 1 1]  z-position: [5.1836451853244885 15.550935555973464]  Repeats: 1 1 (3, 3) (black, white)  Fixed: 2.228  Boundary equiv: True
144 atoms

2 atom types

0.0 9.920433458271871 xlo xhi
0.0 11.091381789479609 ylo yhi
0.0 20.734580741297954 zlo zhi
4.9602167291359365 22.32097528111172 48.80207987371029 xy xz yz

Atoms

1 1 13.640596005123825 18.855349042115336 5.839252716211904
2 1 18.60081273425976 18.855349042115336 5.839252716211904
3 1 16.120704369691794 19.964487221063298 6.74486024709932
4 1 18.600812734259762 21.07362540001126 7.650467777986734
5 1 21.907623887017053 22.552476305275206 5.839252716211904
6 1 13.640596005123825 21.07362540001126 7.650467777986734
7 1 11.160487640555859 22.18276357895922 8.55607530887415
8 2 13.640596005123825 23.291901757907183 9.461682839761563
9 1 11.160487640555859 19.9644872210633 6.744860247099318
10 2 18.600812734259762 23.291901757907183 9.461682839761563
11 2 16.120704369691794 24.401039936855142 10.367290370648979
12 2 18.600812734259762 25.510178115803104 11.272897901536393
13 1 16.120704369691794 22.18276357895922 8.55607530887415
14 1 16.947407157881116 22.552476305275206 5.839252716211904
15 1 14.467298793313148 23.66161448422317 6.744860247099318
16 1 16.947407157881116 24.77075266317113 7.650467777986734
17 1 21.907623887017053 24.77075266317113 7.650467777986734
18 1 19.427515522449085 25.87989084211909 8.55607530887415
19 2 21.907623887017053 26.98902902106705 9.461682839761563
20 1 19.427515522449085 23.66161448422317 6.74486024709932
21 1 20.254218310638407 26.249603568435077 5.839252716211902
22 1 22.734326675206376 27.35874174738304 6.744860247099318
23 2 13.640596005123827 25.510178115803104 11.272897901536393
24 1 11.16048764055586 26.619316294751066 12.178505432423808
25 1 13.640596005123827 27.728454473699028 13.084112963311222
26 2 11.16048764055586 24.401039936855142 10.367290370648979
27 1 18.600812734259762 27.728454473699028 13.084112963311222
28 1 16.120704369691794 28.837592652646986 13.989720494198638
29 1 18.600812734259762 29.946730831594948 14.895328025086053
30 1 16.120704369691794 26.619316294751066 12.178505432423808
31 2 16.947407157881116 26.989029021067054 9.461682839761563
32 2 14.46729879331315 28.098167200015013 10.367290370648979
33 2 16.947407157881116 29.207305378962975 11.272897901536393
34 1 14.46729879331315 25.879890842119092 8.55607530887415
35 1 15.29400158150247 26.249603568435077 5.839252716211902
36 1 15.29400158150247 28.467879926331 7.650467777986734
37 2 21.907623887017053 29.207305378962975 11.272897901536393
38 1 19.427515522449085 30.316443557910937 12.178505432423808
39 1 21.907623887017053 31.4255817368589 13.084112963311224
40 2 19.427515522449085 28.098167200015013 10.367290370648979
41 1 20.254218310638407 28.467879926330998 7.650467777986734
42 1 17.77410994607044 29.577018105278963 8.55607530887415
43 2 20.254218310638407 30.68615628422692 9.461682839761563
44 1 17.77410994607044 27.35874174738304 6.744860247099318
45 2 22.734326675206376 31.795294463174884 10.367290370648977
46 1 22.734326675206376 29.57701810527896 8.55607530887415
47 1 13.640596005123829 29.94673083159495 14.895328025086052
48 1 11.16048764055586 28.83759265264699 13.989720494198638
49 1 16.947407157881116 31.4255817368589 13.084112963311222
50 1 14.467298793313152 32.53471991580686 13.989720494198638
51 1 16.947407157881116 33.64385809475482 14.895328025086053
52 1 14.467298793313152 30.316443557910937 12.178505432423808
53 2 15.29400158150247 30.68615628422692 9.461682839761563
54 2 15.294001581502473 32.90443264212284 11.272897901536393
55 1 21.907623887017053 33.64385809475482 14.895328025086052
56 1 19.427515522449085 32.53471991580686 13.98972049419864
57 2 20.254218310638407 32.90443264212284 11.272897901536393
58 1 17.77410994607044 34.01357082107081 12.178505432423808
59 1 20.254218310638407 35.12270900001877 13.084112963311224
60 2 17.77410994607044 31.795294463174884 10.367290370648979
61 1 22.734326675206376 36.23184717896673 13.989720494198636
62 1 22.734326675206372 34.0135708210708 12.178505432423808
63 1 15.294001581502473 35.12270900001877 13.08411296331122
64 1 15.294001581502473 37.34098535791469 14.895328025086052
65 1 20.254218310638407 37.34098535791469 14.89532802508605
66 1 17.77410994607044 36.23184717896673 13.989720494198638
67 1 0.0 2.218276357895922 1.8112150617748295
68 2 2.4801083645679682 1.109138178947962 0.9056075308874147
69 2 4.960216729135936 0.0 -1.1102230246251565e-16
70 2 0.0 0.0 0.0
71 1 0.0 6.654829073687768 5.1836451853244885
72 1 2.4801083645679682 3.327414536843884 2.7168225926622442
73 1 2.4801083645679682 5.545690894739806 4.528037654437075
74 1 4.960216729135936 4.436552715791845 3.6224301235496585
75 1 0.0 4.436552715791845 3.6224301235496585
76 1 1.6534055763786455 5.915403621055794 1.811215061774829
77 2 7.440325093703903 1.109138178947962 0.9056075308874145
78 1 7.440325093703903 3.327414536843884 2.7168225926622442
79 1 4.960216729135936 2.218276357895922 1.811215061774829
80 2 4.133513940946613 4.806265442107832 0.9056075308874143
81 2 6.61362230551458 3.697127263159871 -5.551115123125783e-16
82 2 1.6534055763786455 3.697127263159871 -3.3306690738754696e-16
83 1 1.6534055763786455 10.351956336847639 5.1836451853244885
84 1 7.440325093703903 5.545690894739806 4.528037654437075
85 1 4.960216729135936 6.654829073687768 5.1836451853244885
86 1 4.133513940946613 7.024541800003755 2.716822592662244
87 1 4.133513940946613 9.242818157899677 4.528037654437075
88 1 6.61362230551458 8.133679978951715 3.6224301235496585
89 1 1.6534055763786455 8.133679978951717 3.6224301235496585
90 1 3.306811152757291 9.612530884215664 1.811215061774829
91 2 9.093730670082548 4.806265442107832 0.9056075308874143
92 1 9.093730670082547 7.024541800003755 2.716822592662244
93 1 6.61362230551458 5.915403621055793 1.811215061774829
94 2 5.7869195173252574 8.503392705267704 0.9056075308874139
95 2 8.267027881893226 7.394254526319742 -9.43689570931383e-16
96 2 3.306811152757291 7.394254526319742 -7.216449660063518e-16
97 1 3.306811152757291 14.04908360000751 5.1836451853244885
98 1 9.093730670082547 9.242818157899677 4.528037654437075
99 1 6.613622305514581 10.351956336847639 5.1836451853244885
100 1 5.786919517325258 10.721669063163626 2.7168225926622434
101 1 5.786919517325258 12.939945421059548 4.528037654437073
102 1 8.267027881893226 11.830807242111586 3.6224301235496585
103 1 3.306811152757291 11.830807242111588 3.6224301235496585
104 2 10.747136246461192 8.503392705267704 0.9056075308874139
105 1 10.747136246461192 10.721669063163626 2.7168225926622434
106 1 8.267027881893226 9.612530884215664 1.8112150617748286
107 1 22.320975281111714 42.14725080002252 15.550935555973467
108 1 10.747136246461192 12.939945421059548 4.528037654437073
109 1 8.267027881893226 14.04908360000751 5.1836451853244885
110 1 22.320975281111714 46.58380351581437 18.923365679523123
111 1 24.801083645679682 43.25638897897049 16.20654308686088
112 1 24.801083645679682 45.47466533686641 18.01775814863571
113 1 27.28119201024765 44.36552715791845 17.112150617748295
114 1 22.320975281111714 44.36552715791845 17.112150617748295
115 1 23.97438085749036 45.84437806318239 15.550935555973464
116 1 29.76130037481562 43.25638897897049 16.20654308686088
117 1 27.28119201024765 42.14725080002252 15.550935555973464
118 2 24.801083645679682 47.692941694762325 19.82897321041054
119 1 23.97438085749036 50.28093077897424 18.923365679523123
120 1 29.76130037481562 45.47466533686641 18.017758148635707
121 2 29.76130037481562 47.692941694762325 19.82897321041054
122 1 27.28119201024765 46.58380351581437 18.923365679523126
123 1 26.454489222058328 46.95351624213036 16.20654308686088
124 1 26.454489222058328 49.17179260002628 18.01775814863571
125 1 28.934597586626296 48.06265442107832 17.112150617748295
126 1 23.97438085749036 48.06265442107832 17.112150617748295
127 1 25.627786433869005 49.54150532634226 15.550935555973464
128 1 31.414705951194264 46.95351624213036 16.20654308686088
129 1 28.934597586626296 45.84437806318239 15.550935555973464
130 2 26.454489222058328 51.390068957922196 19.82897321041054
131 1 25.627786433869005 53.97805804213411 18.923365679523123
132 1 31.414705951194264 49.17179260002628 18.017758148635707
133 2 31.414705951194264 51.390068957922196 19.82897321041054
134 1 28.934597586626296 50.28093077897424 18.923365679523126
135 1 28.107894798436973 50.65064350529023 16.20654308686088
136 1 28.107894798436973 52.86891986318615 18.01775814863571
137 1 30.58800316300494 51.75978168423819 17.112150617748295
138 1 25.627786433869005 51.75978168423819 17.112150617748295
139 1 33.06811152757291 50.65064350529023 16.20654308686088
140 1 30.58800316300494 49.54150532634226 15.550935555973464
141 2 28.107894798436973 55.08719622108208 19.82897321041054
142 1 33.06811152757291 52.86891986318615 18.017758148635707
143 2 33.06811152757291 55.08719622108208 19.82897321041054
144 1 30.58800316300494 53.97805804213411 18.923365679523126
