LAMMPS (29 Aug 2024 - Update 2)
#---------------------------------------------------------------------------------------------------
# Initilise important features of simulation
#---------------------------------------------------------------------------------------------------
units 		metal	# Use metals units (Ang, ps, eV, bar, etc.)
dimension 	3		# Run the simulation in three dimensions
boundary 	p p p	# Use periodic boundaries in all three dimensions
atom_style 	atomic	#
#box tilt large		# Allow larger than normal tilt factors

variable T_start equal 600
variable T_end equal 200
variable tstep equal 0.002
timestep ${tstep}
timestep 0.002

read_data   lammps.txt	# Read in atom coordinates from a file
Reading data file ...
  triclinic box = (0 0 0) to (9.9204335 11.091382 20.734581) with tilt (4.9602167 14.88065 29.392162)
WARNING: Triclinic box skew is large. LAMMPS will run inefficiently. (src/domain.cpp:221)
  1 by 1 by 1 MPI processor grid
  reading atoms ...
  144 atoms
  read_data CPU = 0.001 seconds

#---------------------------------------------------------------------------------------------------
# Define how the forces between the atoms will be modelled
#---------------------------------------------------------------------------------------------------
pair_style eam/alloy
pair_coeff * * Zope-Ti-Al-2003.eam.alloy.txt Al Al

#---------------------------------------------------------------------------------------------------
# Set behaviour of simulation
#---------------------------------------------------------------------------------------------------
group g_fixed type 2
36 atoms in group g_fixed
group g_other type 1
108 atoms in group g_other
fix f_freeze g_fixed setforce 0.0 0.0 0.0 	# Hold atoms of type 2 fixed in place
#fix f_constrain g_other setforce 0.0 0.0 NULL 	# All atoms of type 1 to move only in z direction

#---------------------------------------------------------------------------------------------------
# Specify what information to write out
#---------------------------------------------------------------------------------------------------
thermo_style custom step atoms temp pe ke etotal fmax
thermo_modify format 6 %20.10f
thermo 1000

#compute statom all stress/atom NULL
compute peatom all pe/atom
dump 1 all custom 100000 dump.* id type x y z c_peatom
dump_modify 1 first yes


#---------------------------------------------------------------------------------------------------
# Initial relaxation
#---------------------------------------------------------------------------------------------------
velocity all set 0.0 0.0 0.0

min_style 	cg
min_modify dmax 0.1
minimize 	0.0 1.0e-6 10000 100000
Neighbor list info ...
  update: every = 1 steps, delay = 0 steps, check = yes
  max neighbors/atom: 2000, page size: 100000
  master list distance cutoff = 8.724884
  ghost atom cutoff = 8.724884
  binsize = 4.362442, bins = 7 10 5
  1 neighbor lists, perpetual/occasional/extra = 1 0 0
  (1) pair eam/alloy, perpetual
      attributes: half, newton on
      pair build: half/bin/atomonly/newton/tri
      stencil: half/bin/3d/tri
      bin: standard
Per MPI rank memory allocation (min/avg/max) = 4.688 | 4.688 | 4.688 Mbytes
   Step        Atoms         Temp          PotEng         KinEng         TotEng          Fmax     
         0         144   0             -426.61895      0                  -426.6189453647  6.7839965    
        57         144   0             -469.96404      0                  -469.9640384349  9.2234461e-08
Loop time of 0.0103684 on 1 procs for 57 steps with 144 atoms

99.3% CPU use with 1 MPI tasks x no OpenMP threads

Minimization stats:
  Stopping criterion = force tolerance
  Energy initial, next-to-last, final = 
     -426.618945364729  -469.964038434923  -469.964038434919
  Force two-norm initial, final = 34.006416 5.8854799e-07
  Force max component initial, final = 6.7839965 9.2234461e-08
  Final line search alpha, max atom move = 1 9.2234461e-08
  Iterations, force evaluations = 57 104

MPI task timing breakdown:
Section |  min time  |  avg time  |  max time  |%varavg| %total
---------------------------------------------------------------
Pair    | 0.0094548  | 0.0094548  | 0.0094548  |   0.0 | 91.19
Neigh   | 0          | 0          | 0          |   0.0 |  0.00
Comm    | 0.00050012 | 0.00050012 | 0.00050012 |   0.0 |  4.82
Output  | 0          | 0          | 0          |   0.0 |  0.00
Modify  | 1.5584e-05 | 1.5584e-05 | 1.5584e-05 |   0.0 |  0.15
Other   |            | 0.0003979  |            |       |  3.84

Nlocal:            144 ave         144 max         144 min
Histogram: 1 0 0 0 0 0 0 0 0 0
Nghost:           2844 ave        2844 max        2844 min
Histogram: 1 0 0 0 0 0 0 0 0 0
Neighs:          12972 ave       12972 max       12972 min
Histogram: 1 0 0 0 0 0 0 0 0 0

Total # of neighbors = 12972
Ave neighs/atom = 90.083333
Neighbor list builds = 0
Dangerous builds = 0
#---------------------------------------------------------------------------------------------------
# Anneal boundary structures
#---------------------------------------------------------------------------------------------------
reset_timestep 100000
fix md g_other nvt temp ${T_start} ${T_end} $(100.0*v_tstep)
fix md g_other nvt temp 600 ${T_end} $(100.0*v_tstep)
fix md g_other nvt temp 600 200 $(100.0*v_tstep)
fix md g_other nvt temp 600 200 0.2000000000000000111

velocity all create ${T_start} 4928459 rot yes mom yes dist gaussian
velocity all create 600 4928459 rot yes mom yes dist gaussian
run 10000
Per MPI rank memory allocation (min/avg/max) = 4.946 | 4.946 | 4.946 Mbytes
   Step        Atoms         Temp          PotEng         KinEng         TotEng          Fmax     
    100000         144   600           -469.96404      11.09052           -458.8735179939  9.2234469e-08
    101000         144   598.22082     -462.42063      11.057634          -451.3629957247  1.3790312    
    102000         144   612.26414     -462.26276      11.317213          -450.9455426198  1.5025407    
    103000         144   511.75428     -463.20252      9.4593689          -453.7431469520  1.3862176    
    104000         144   535.76926     -462.70894      9.9032666          -452.8056732994  1.6828474    
    105000         144   486.12786     -463.7364       8.985685           -454.7507198541  1.2095792    
    106000         144   424.52232     -464.15542      7.8469557          -456.3084639491  1.1613307    
    107000         144   421.76817     -465.20274      7.7960475          -457.4066956995  0.9344108    
    108000         144   384.3803      -465.52112      7.1049626          -458.4161618870  1.111027     
    109000         144   361.71802     -466.60658      6.6860685          -459.9205117049  0.96009258   
    110000         144   359.14401     -466.77295      6.63849            -460.1344624508  0.99602759   
Loop time of 0.937203 on 1 procs for 10000 steps with 144 atoms

Performance: 1843.785 ns/day, 0.013 hours/ns, 10670.051 timesteps/s, 1.536 Matom-step/s
99.5% CPU use with 1 MPI tasks x no OpenMP threads

MPI task timing breakdown:
Section |  min time  |  avg time  |  max time  |%varavg| %total
---------------------------------------------------------------
Pair    | 0.8486     | 0.8486     | 0.8486     |   0.0 | 90.55
Neigh   | 0.014486   | 0.014486   | 0.014486   |   0.0 |  1.55
Comm    | 0.051397   | 0.051397   | 0.051397   |   0.0 |  5.48
Output  | 4.4416e-05 | 4.4416e-05 | 4.4416e-05 |   0.0 |  0.00
Modify  | 0.010543   | 0.010543   | 0.010543   |   0.0 |  1.12
Other   |            | 0.01213    |            |       |  1.29

Nlocal:            144 ave         144 max         144 min
Histogram: 1 0 0 0 0 0 0 0 0 0
Nghost:           3016 ave        3016 max        3016 min
Histogram: 1 0 0 0 0 0 0 0 0 0
Neighs:          12666 ave       12666 max       12666 min
Histogram: 1 0 0 0 0 0 0 0 0 0

Total # of neighbors = 12666
Ave neighs/atom = 87.958333
Neighbor list builds = 28
Dangerous builds = 0
unfix md

#---------------------------------------------------------------------------------------------------
# Final relaxation
#---------------------------------------------------------------------------------------------------
velocity all set 0.0 0.0 0.0

min_style 	cg
min_modify dmax 0.1
minimize 	0.0 1.0e-6 10000 100000
Per MPI rank memory allocation (min/avg/max) = 6.071 | 6.071 | 6.071 Mbytes
   Step        Atoms         Temp          PotEng         KinEng         TotEng          Fmax     
    110000         144   0             -466.77295      0                  -466.7729524568  0.99602759   
    110059         144   0             -469.82925      0                  -469.8292460899  2.1939957e-07
Loop time of 0.0120953 on 1 procs for 59 steps with 144 atoms

98.4% CPU use with 1 MPI tasks x no OpenMP threads

Minimization stats:
  Stopping criterion = force tolerance
  Energy initial, next-to-last, final = 
     -466.772952456777  -469.829246089876  -469.829246089875
  Force two-norm initial, final = 5.2971518 9.6077946e-07
  Force max component initial, final = 0.99602759 2.1939957e-07
  Final line search alpha, max atom move = 1 2.1939957e-07
  Iterations, force evaluations = 59 116

MPI task timing breakdown:
Section |  min time  |  avg time  |  max time  |%varavg| %total
---------------------------------------------------------------
Pair    | 0.010938   | 0.010938   | 0.010938   |   0.0 | 90.43
Neigh   | 0          | 0          | 0          |   0.0 |  0.00
Comm    | 0.00058987 | 0.00058987 | 0.00058987 |   0.0 |  4.88
Output  | 0          | 0          | 0          |   0.0 |  0.00
Modify  | 1.675e-05  | 1.675e-05  | 1.675e-05  |   0.0 |  0.14
Other   |            | 0.0005512  |            |       |  4.56

Nlocal:            144 ave         144 max         144 min
Histogram: 1 0 0 0 0 0 0 0 0 0
Nghost:           2960 ave        2960 max        2960 min
Histogram: 1 0 0 0 0 0 0 0 0 0
Neighs:          12683 ave       12683 max       12683 min
Histogram: 1 0 0 0 0 0 0 0 0 0

Total # of neighbors = 12683
Ave neighs/atom = 88.076389
Neighbor list builds = 0
Dangerous builds = 0

Total wall time: 0:00:00
