LAMMPS (29 Aug 2024 - Update 2)
#---------------------------------------------------------------------------------------------------
# Initilise important features of simulation
#---------------------------------------------------------------------------------------------------
units 		metal	# Use metals units (Ang, ps, eV, bar, etc.)
dimension 	3		# Run the simulation in three dimensions
boundary 	p p p	# Use periodic boundaries in all three dimensions
atom_style 	atomic	#
#box tilt large		# Allow larger than normal tilt factors

variable T_start equal 600
variable T_end equal 200
variable tstep equal 0.002
timestep ${tstep}
timestep 0.002

read_data   lammps.txt	# Read in atom coordinates from a file
Reading data file ...
  triclinic box = (0 0 0) to (9.9204335 11.091382 24.734581) with tilt (4.9602167 13.020569 30.778584)
WARNING: Triclinic box skew is large. LAMMPS will run inefficiently. (src/domain.cpp:221)
  1 by 1 by 1 MPI processor grid
  reading atoms ...
  144 atoms
  read_data CPU = 0.001 seconds

#---------------------------------------------------------------------------------------------------
# Define how the forces between the atoms will be modelled
#---------------------------------------------------------------------------------------------------
pair_style eam/alloy
pair_coeff * * Zope-Ti-Al-2003.eam.alloy.txt Al Al

#---------------------------------------------------------------------------------------------------
# Set behaviour of simulation
#---------------------------------------------------------------------------------------------------
group g_fixed type 2
36 atoms in group g_fixed
group g_other type 1
108 atoms in group g_other
fix f_freeze g_fixed setforce 0.0 0.0 0.0 	# Hold atoms of type 2 fixed in place
#fix f_constrain g_other setforce 0.0 0.0 NULL 	# All atoms of type 1 to move only in z direction

#---------------------------------------------------------------------------------------------------
# Specify what information to write out
#---------------------------------------------------------------------------------------------------
thermo_style custom step atoms temp pe ke etotal fmax
thermo_modify format 6 %20.10f
thermo 1000

#compute statom all stress/atom NULL
compute peatom all pe/atom
dump 1 all custom 100000 dump.* id type x y z c_peatom
dump_modify 1 first yes


#---------------------------------------------------------------------------------------------------
# Initial relaxation
#---------------------------------------------------------------------------------------------------
velocity all set 0.0 0.0 0.0

min_style 	cg
min_modify dmax 0.1
minimize 	0.0 1.0e-6 10000 100000
Neighbor list info ...
  update: every = 1 steps, delay = 0 steps, check = yes
  max neighbors/atom: 2000, page size: 100000
  master list distance cutoff = 8.724884
  ghost atom cutoff = 8.724884
  binsize = 4.362442, bins = 7 10 6
  1 neighbor lists, perpetual/occasional/extra = 1 0 0
  (1) pair eam/alloy, perpetual
      attributes: half, newton on
      pair build: half/bin/atomonly/newton/tri
      stencil: half/bin/3d/tri
      bin: standard
Per MPI rank memory allocation (min/avg/max) = 4.643 | 4.643 | 4.643 Mbytes
   Step        Atoms         Temp          PotEng         KinEng         TotEng          Fmax     
         0         144   0             -456.13132      0                  -456.1313168622  3.0655385    
        80         144   0             -468.50054      0                  -468.5005425350  1.1927128e-07
Loop time of 0.0123378 on 1 procs for 80 steps with 144 atoms

98.8% CPU use with 1 MPI tasks x no OpenMP threads

Minimization stats:
  Stopping criterion = force tolerance
  Energy initial, next-to-last, final = 
     -456.131316862235  -468.500542535026  -468.500542535025
  Force two-norm initial, final = 12.421864 8.9334241e-07
  Force max component initial, final = 3.0655385 1.1927128e-07
  Final line search alpha, max atom move = 1 1.1927128e-07
  Iterations, force evaluations = 80 153

MPI task timing breakdown:
Section |  min time  |  avg time  |  max time  |%varavg| %total
---------------------------------------------------------------
Pair    | 0.011169   | 0.011169   | 0.011169   |   0.0 | 90.53
Neigh   | 0          | 0          | 0          |   0.0 |  0.00
Comm    | 0.00057634 | 0.00057634 | 0.00057634 |   0.0 |  4.67
Output  | 0          | 0          | 0          |   0.0 |  0.00
Modify  | 2.2162e-05 | 2.2162e-05 | 2.2162e-05 |   0.0 |  0.18
Other   |            | 0.0005703  |            |       |  4.62

Nlocal:            144 ave         144 max         144 min
Histogram: 1 0 0 0 0 0 0 0 0 0
Nghost:           2128 ave        2128 max        2128 min
Histogram: 1 0 0 0 0 0 0 0 0 0
Neighs:          10860 ave       10860 max       10860 min
Histogram: 1 0 0 0 0 0 0 0 0 0

Total # of neighbors = 10860
Ave neighs/atom = 75.416667
Neighbor list builds = 0
Dangerous builds = 0
#---------------------------------------------------------------------------------------------------
# Anneal boundary structures
#---------------------------------------------------------------------------------------------------
reset_timestep 100000
fix md g_other nvt temp ${T_start} ${T_end} $(100.0*v_tstep)
fix md g_other nvt temp 600 ${T_end} $(100.0*v_tstep)
fix md g_other nvt temp 600 200 $(100.0*v_tstep)
fix md g_other nvt temp 600 200 0.2000000000000000111

velocity all create ${T_start} 4928459 rot yes mom yes dist gaussian
velocity all create 600 4928459 rot yes mom yes dist gaussian
run 10000
Per MPI rank memory allocation (min/avg/max) = 4.901 | 4.901 | 4.901 Mbytes
   Step        Atoms         Temp          PotEng         KinEng         TotEng          Fmax     
    100000         144   600           -468.50054      11.09052           -457.4100220940  1.1927128e-07
    101000         144   604.16033     -462.22637      11.167421          -451.0589473314  1.186473     
    102000         144   625.6395      -462.74986      11.564446          -451.1854107102  1.4378133    
    103000         144   514.23546     -463.41133      9.5052314          -453.9061000840  1.5719098    
    104000         144   575.36764     -463.48148      10.635211          -452.8462731681  1.2163023    
    105000         144   503.94443     -463.92523      9.3150099          -454.6102202404  1.135227     
    106000         144   469.76552     -466.18493      8.6832401          -457.5016942482  0.97387817   
    107000         144   387.40576     -466.05649      7.1608858          -458.8956012945  1.0049782    
    108000         144   454.02878     -466.69976      8.392359           -458.3074034488  0.96658939   
    109000         144   342.52815     -467.82902      6.331359           -461.4976587211  0.85496105   
    110000         144   325.63239     -468.5412       6.0190545          -462.5221458027  0.78076009   
Loop time of 0.827275 on 1 procs for 10000 steps with 144 atoms

Performance: 2088.786 ns/day, 0.011 hours/ns, 12087.882 timesteps/s, 1.741 Matom-step/s
99.6% CPU use with 1 MPI tasks x no OpenMP threads

MPI task timing breakdown:
Section |  min time  |  avg time  |  max time  |%varavg| %total
---------------------------------------------------------------
Pair    | 0.71265    | 0.71265    | 0.71265    |   0.0 | 86.14
Neigh   | 0.053283   | 0.053283   | 0.053283   |   0.0 |  6.44
Comm    | 0.040147   | 0.040147   | 0.040147   |   0.0 |  4.85
Output  | 4.3124e-05 | 4.3124e-05 | 4.3124e-05 |   0.0 |  0.01
Modify  | 0.010762   | 0.010762   | 0.010762   |   0.0 |  1.30
Other   |            | 0.01039    |            |       |  1.26

Nlocal:            144 ave         144 max         144 min
Histogram: 1 0 0 0 0 0 0 0 0 0
Nghost:           2237 ave        2237 max        2237 min
Histogram: 1 0 0 0 0 0 0 0 0 0
Neighs:          10558 ave       10558 max       10558 min
Histogram: 1 0 0 0 0 0 0 0 0 0

Total # of neighbors = 10558
Ave neighs/atom = 73.319444
Neighbor list builds = 116
Dangerous builds = 0
unfix md

#---------------------------------------------------------------------------------------------------
# Final relaxation
#---------------------------------------------------------------------------------------------------
velocity all set 0.0 0.0 0.0

min_style 	cg
min_modify dmax 0.1
minimize 	0.0 1.0e-6 10000 100000
Per MPI rank memory allocation (min/avg/max) = 6.026 | 6.026 | 6.026 Mbytes
   Step        Atoms         Temp          PotEng         KinEng         TotEng          Fmax     
    110000         144   0             -468.5412       0                  -468.5412003321  0.78076009   
    110053         144   0             -471.60232      0                  -471.6023240936  1.8984516e-07
Loop time of 0.00894233 on 1 procs for 53 steps with 144 atoms

97.8% CPU use with 1 MPI tasks x no OpenMP threads

Minimization stats:
  Stopping criterion = force tolerance
  Energy initial, next-to-last, final = 
     -468.541200332138  -471.602324093631   -471.60232409363
  Force two-norm initial, final = 4.5015075 8.6809979e-07
  Force max component initial, final = 0.78076009 1.8984516e-07
  Final line search alpha, max atom move = 1 1.8984516e-07
  Iterations, force evaluations = 53 103

MPI task timing breakdown:
Section |  min time  |  avg time  |  max time  |%varavg| %total
---------------------------------------------------------------
Pair    | 0.0080405  | 0.0080405  | 0.0080405  |   0.0 | 89.92
Neigh   | 0          | 0          | 0          |   0.0 |  0.00
Comm    | 0.00040354 | 0.00040354 | 0.00040354 |   0.0 |  4.51
Output  | 0          | 0          | 0          |   0.0 |  0.00
Modify  | 1.5253e-05 | 1.5253e-05 | 1.5253e-05 |   0.0 |  0.17
Other   |            | 0.000483   |            |       |  5.40

Nlocal:            144 ave         144 max         144 min
Histogram: 1 0 0 0 0 0 0 0 0 0
Nghost:           2267 ave        2267 max        2267 min
Histogram: 1 0 0 0 0 0 0 0 0 0
Neighs:          10555 ave       10555 max       10555 min
Histogram: 1 0 0 0 0 0 0 0 0 0

Total # of neighbors = 10555
Ave neighs/atom = 73.298611
Neighbor list builds = 0
Dangerous builds = 0

Total wall time: 0:00:00
