LAMMPS (29 Aug 2024 - Update 2)
#---------------------------------------------------------------------------------------------------
# Initilise important features of simulation
#---------------------------------------------------------------------------------------------------
units 		metal	# Use metals units (Ang, ps, eV, bar, etc.)
dimension 	3		# Run the simulation in three dimensions
boundary 	p p p	# Use periodic boundaries in all three dimensions
atom_style 	atomic	#
#box tilt large		# Allow larger than normal tilt factors

variable T_start equal 600
variable T_end equal 200
variable tstep equal 0.002
timestep ${tstep}
timestep 0.002

read_data   lammps.txt	# Read in atom coordinates from a file
Reading data file ...
  triclinic box = (0 0 0) to (9.9204335 11.091382 22.734581) with tilt (4.9602167 11.780515 28.005739)
WARNING: Triclinic box skew is large. LAMMPS will run inefficiently. (src/domain.cpp:221)
  1 by 1 by 1 MPI processor grid
  reading atoms ...
  144 atoms
  read_data CPU = 0.001 seconds

#---------------------------------------------------------------------------------------------------
# Define how the forces between the atoms will be modelled
#---------------------------------------------------------------------------------------------------
pair_style eam/alloy
pair_coeff * * Zope-Ti-Al-2003.eam.alloy.txt Al Al

#---------------------------------------------------------------------------------------------------
# Set behaviour of simulation
#---------------------------------------------------------------------------------------------------
group g_fixed type 2
36 atoms in group g_fixed
group g_other type 1
108 atoms in group g_other
fix f_freeze g_fixed setforce 0.0 0.0 0.0 	# Hold atoms of type 2 fixed in place
#fix f_constrain g_other setforce 0.0 0.0 NULL 	# All atoms of type 1 to move only in z direction

#---------------------------------------------------------------------------------------------------
# Specify what information to write out
#---------------------------------------------------------------------------------------------------
thermo_style custom step atoms temp pe ke etotal fmax
thermo_modify format 6 %20.10f
thermo 1000

#compute statom all stress/atom NULL
compute peatom all pe/atom
dump 1 all custom 100000 dump.* id type x y z c_peatom
dump_modify 1 first yes


#---------------------------------------------------------------------------------------------------
# Initial relaxation
#---------------------------------------------------------------------------------------------------
velocity all set 0.0 0.0 0.0

min_style 	cg
min_modify dmax 0.1
minimize 	0.0 1.0e-6 10000 100000
Neighbor list info ...
  update: every = 1 steps, delay = 0 steps, check = yes
  max neighbors/atom: 2000, page size: 100000
  master list distance cutoff = 8.724884
  ghost atom cutoff = 8.724884
  binsize = 4.362442, bins = 7 9 6
  1 neighbor lists, perpetual/occasional/extra = 1 0 0
  (1) pair eam/alloy, perpetual
      attributes: half, newton on
      pair build: half/bin/atomonly/newton/tri
      stencil: half/bin/3d/tri
      bin: standard
Per MPI rank memory allocation (min/avg/max) = 4.652 | 4.652 | 4.652 Mbytes
   Step        Atoms         Temp          PotEng         KinEng         TotEng          Fmax     
         0         144   0             -469.00106      0                  -469.0010586121  2.4075556    
        69         144   0             -476.88921      0                  -476.8892090394  1.2492716e-07
Loop time of 0.0138303 on 1 procs for 69 steps with 144 atoms

89.2% CPU use with 1 MPI tasks x no OpenMP threads

Minimization stats:
  Stopping criterion = force tolerance
  Energy initial, next-to-last, final = 
     -469.001058612138  -476.889209039375  -476.889209039371
  Force two-norm initial, final = 9.1464235 7.0116106e-07
  Force max component initial, final = 2.4075556 1.2492716e-07
  Final line search alpha, max atom move = 1 1.2492716e-07
  Iterations, force evaluations = 69 131

MPI task timing breakdown:
Section |  min time  |  avg time  |  max time  |%varavg| %total
---------------------------------------------------------------
Pair    | 0.011414   | 0.011414   | 0.011414   |   0.0 | 82.53
Neigh   | 0          | 0          | 0          |   0.0 |  0.00
Comm    | 0.00054746 | 0.00054746 | 0.00054746 |   0.0 |  3.96
Output  | 0          | 0          | 0          |   0.0 |  0.00
Modify  | 2.1288e-05 | 2.1288e-05 | 2.1288e-05 |   0.0 |  0.15
Other   |            | 0.001847   |            |       | 13.36

Nlocal:            144 ave         144 max         144 min
Histogram: 1 0 0 0 0 0 0 0 0 0
Nghost:           2344 ave        2344 max        2344 min
Histogram: 1 0 0 0 0 0 0 0 0 0
Neighs:          11852 ave       11852 max       11852 min
Histogram: 1 0 0 0 0 0 0 0 0 0

Total # of neighbors = 11852
Ave neighs/atom = 82.305556
Neighbor list builds = 0
Dangerous builds = 0
#---------------------------------------------------------------------------------------------------
# Anneal boundary structures
#---------------------------------------------------------------------------------------------------
reset_timestep 100000
fix md g_other nvt temp ${T_start} ${T_end} $(100.0*v_tstep)
fix md g_other nvt temp 600 ${T_end} $(100.0*v_tstep)
fix md g_other nvt temp 600 200 $(100.0*v_tstep)
fix md g_other nvt temp 600 200 0.2000000000000000111

velocity all create ${T_start} 4928459 rot yes mom yes dist gaussian
velocity all create 600 4928459 rot yes mom yes dist gaussian
run 10000
Per MPI rank memory allocation (min/avg/max) = 4.909 | 4.909 | 4.909 Mbytes
   Step        Atoms         Temp          PotEng         KinEng         TotEng          Fmax     
    100000         144   600           -476.88921      11.09052           -465.7986885984  1.2492716e-07
    101000         144   606.12399     -469.71901      11.203717          -458.5152885319  1.2544814    
    102000         144   651.8568      -468.74231      12.049052          -456.6932572503  1.1570078    
    103000         144   511.8752      -469.8268       9.4616039          -460.3651966062  1.3249175    
    104000         144   521.86562     -470.2132       9.6462689          -460.5669276481  1.291157     
    105000         144   456.94079     -471.12304      8.4461853          -462.6768559793  0.97264082   
    106000         144   446.87652     -470.61829      8.2601552          -462.3581373245  1.2981657    
    107000         144   442.57915     -472.98627      8.1807218          -464.8055527854  0.88947415   
    108000         144   401.65891     -472.63015      7.424344           -465.2058101283  1.0187803    
    109000         144   372.18184     -473.73097      6.8794838          -466.8514866243  0.88711776   
    110000         144   322.44414     -473.8606       5.9601223          -467.9004771674  0.76750786   
Loop time of 0.881074 on 1 procs for 10000 steps with 144 atoms

Performance: 1961.243 ns/day, 0.012 hours/ns, 11349.788 timesteps/s, 1.634 Matom-step/s
98.8% CPU use with 1 MPI tasks x no OpenMP threads

MPI task timing breakdown:
Section |  min time  |  avg time  |  max time  |%varavg| %total
---------------------------------------------------------------
Pair    | 0.78632    | 0.78632    | 0.78632    |   0.0 | 89.25
Neigh   | 0.030441   | 0.030441   | 0.030441   |   0.0 |  3.45
Comm    | 0.04201    | 0.04201    | 0.04201    |   0.0 |  4.77
Output  | 8.5376e-05 | 8.5376e-05 | 8.5376e-05 |   0.0 |  0.01
Modify  | 0.011327   | 0.011327   | 0.011327   |   0.0 |  1.29
Other   |            | 0.01089    |            |       |  1.24

Nlocal:            144 ave         144 max         144 min
Histogram: 1 0 0 0 0 0 0 0 0 0
Nghost:           2366 ave        2366 max        2366 min
Histogram: 1 0 0 0 0 0 0 0 0 0
Neighs:          11594 ave       11594 max       11594 min
Histogram: 1 0 0 0 0 0 0 0 0 0

Total # of neighbors = 11594
Ave neighs/atom = 80.513889
Neighbor list builds = 62
Dangerous builds = 0
unfix md

#---------------------------------------------------------------------------------------------------
# Final relaxation
#---------------------------------------------------------------------------------------------------
velocity all set 0.0 0.0 0.0

min_style 	cg
min_modify dmax 0.1
minimize 	0.0 1.0e-6 10000 100000
Per MPI rank memory allocation (min/avg/max) = 6.034 | 6.034 | 6.034 Mbytes
   Step        Atoms         Temp          PotEng         KinEng         TotEng          Fmax     
    110000         144   0             -473.8606       0                  -473.8605994282  0.76750786   
    110082         144   0             -476.9105       0                  -476.9105046849  1.9183541e-07
Loop time of 0.0152136 on 1 procs for 82 steps with 144 atoms

98.2% CPU use with 1 MPI tasks x no OpenMP threads

Minimization stats:
  Stopping criterion = force tolerance
  Energy initial, next-to-last, final = 
     -473.860599428177  -476.910504684936  -476.910504684938
  Force two-norm initial, final = 4.9797496 9.625601e-07
  Force max component initial, final = 0.76750786 1.9183541e-07
  Final line search alpha, max atom move = 1 1.9183541e-07
  Iterations, force evaluations = 82 162

MPI task timing breakdown:
Section |  min time  |  avg time  |  max time  |%varavg| %total
---------------------------------------------------------------
Pair    | 0.01378    | 0.01378    | 0.01378    |   0.0 | 90.58
Neigh   | 0          | 0          | 0          |   0.0 |  0.00
Comm    | 0.00067407 | 0.00067407 | 0.00067407 |   0.0 |  4.43
Output  | 0          | 0          | 0          |   0.0 |  0.00
Modify  | 2.346e-05  | 2.346e-05  | 2.346e-05  |   0.0 |  0.15
Other   |            | 0.000736   |            |       |  4.84

Nlocal:            144 ave         144 max         144 min
Histogram: 1 0 0 0 0 0 0 0 0 0
Nghost:           2352 ave        2352 max        2352 min
Histogram: 1 0 0 0 0 0 0 0 0 0
Neighs:          11571 ave       11571 max       11571 min
Histogram: 1 0 0 0 0 0 0 0 0 0

Total # of neighbors = 11571
Ave neighs/atom = 80.354167
Neighbor list builds = 0
Dangerous builds = 0

Total wall time: 0:00:00
