ITEM: TIMESTEP
110
ITEM: NUMBER OF ATOMS
144
ITEM: BOX BOUNDS xy xz yz pp pp pp
0.0000000000000000e+00 3.4721517103951562e+01 4.9602167291359365e+00
0.0000000000000000e+00 5.7120616215819993e+01 1.9840866916543753e+01
0.0000000000000000e+00 2.2734580741297954e+01 4.6029234426340388e+01
ITEM: ATOMS id type x y z c_peatom
69 2 4.96022 4.49559e-16 0 -3.36819
70 2 0 0 0 -3.36819
82 2 1.65341 3.69713 0 -3.35293
81 2 6.61362 3.69713 0 -3.35293
80 2 4.13351 4.80627 0.905608 -3.34704
86 1 4.24041 6.87793 2.73124 -3.3296
88 1 6.90167 7.89423 3.73988 -3.27081
91 2 9.09373 4.80627 0.905608 -3.34704
92 1 9.20063 6.87793 2.73124 -3.3296
93 1 6.657 5.82896 1.86087 -3.35522
94 2 5.78692 8.50339 0.905608 -3.34284
95 2 8.26703 7.39425 0 -3.35293
76 1 11.6172 5.82896 1.86087 -3.35522
89 1 11.8619 7.89423 3.73988 -3.27081
96 2 13.2272 7.39425 0 -3.35293
104 2 10.7471 8.50339 0.905608 -3.34284
87 1 9.60601 20.1458 4.46508 -3.12498
68 2 7.44033 12.2005 0.905608 -3.37082
98 1 14.5662 20.1458 4.46508 -3.12498
100 1 5.77842 10.5996 2.58665 -3.25165
101 1 15.41 12.5167 4.52889 -3.22588
102 1 8.10815 11.49 3.63687 -3.26547
106 1 8.28016 9.49521 1.78576 -3.36446
77 2 12.4005 12.2005 0.905608 -3.37082
90 1 13.2404 9.49521 1.78576 -3.36446
103 1 13.0684 11.49 3.63687 -3.26547
105 1 10.7386 10.5996 2.58665 -3.25165
108 1 10.4498 12.5167 4.52889 -3.22588
72 1 7.36986 14.2442 2.73359 -3.37013
73 1 7.38481 16.2272 4.64566 -3.32894
74 1 9.84707 15.2945 3.58408 -3.32884
79 1 9.86306 13.2099 1.82054 -3.38577
67 1 14.8233 13.2099 1.82054 -3.38577
75 1 14.8073 15.2945 3.58408 -3.32884
78 1 12.3301 14.2442 2.73359 -3.37013
84 1 12.345 16.2272 4.64566 -3.32894
109 1 7.8213 13.5319 5.47567 -3.19541
1 1 12.3545 17.736 6.86547 -3.27582
97 1 12.7815 13.5319 5.47567 -3.19541
2 1 17.3147 17.736 6.86547 -3.27582
85 1 9.86889 17.4159 5.41053 -3.28287
3 1 14.8301 18.8808 7.68081 -3.33165
5 1 10.32 21.567 6.8076 -3.20289
6 1 12.3475 19.8396 8.69446 -3.33071
9 1 9.86983 18.8808 7.68081 -3.33165
71 1 14.8291 17.4159 5.41053 -3.28287
99 1 12.5894 20.441 6.02947 -3.15001
4 1 17.3077 19.8396 8.69446 -3.33071
14 1 15.2802 21.567 6.8076 -3.20289
83 1 17.5496 20.441 6.02947 -3.15001
15 1 12.9444 22.607 7.75697 -3.22471
17 1 10.5885 23.6255 8.62642 -3.25979
22 1 7.1062 15.0066 7.77761 -3.13338
35 1 10.0653 14.6958 6.25034 -3.15386
16 1 15.5487 23.6255 8.62642 -3.25979
20 1 17.9047 22.607 7.75697 -3.22471
21 1 15.0256 14.6958 6.25034 -3.15386
44 1 12.0664 15.0066 7.77761 -3.13338
36 1 14.3106 27.2315 8.55987 -3.27189
41 1 19.2708 27.2315 8.55987 -3.27189
7 1 9.88367 20.9026 9.5628 -3.37984
8 2 12.4005 21.9055 10.4617 -3.3837
13 1 14.8439 20.9026 9.5628 -3.37984
10 2 17.3608 21.9055 10.4617 -3.3837
11 2 14.8807 23.0146 11.3673 -3.38111
34 1 13.2026 24.5608 9.67626 -3.26509
18 1 18.1629 24.5608 9.67626 -3.26509
31 2 15.7074 25.6026 10.4617 -3.36583
19 2 20.6676 25.6026 10.4617 -3.36583
26 2 9.92043 23.0146 11.3673 -3.38111
32 2 13.2272 26.7117 11.3673 -3.35106
52 1 13.1572 28.849 13.1913 -3.33965
53 2 14.0539 29.2997 10.4617 -3.35968
33 2 15.7074 27.8209 12.2729 -3.35968
38 1 18.1175 28.849 13.1913 -3.33965
40 2 18.1875 26.7117 11.3673 -3.35106
42 1 16.6041 28.2716 9.54329 -3.33965
43 2 19.0142 29.2997 10.4617 -3.35968
60 2 16.5341 30.4089 11.3673 -3.35106
37 2 20.6676 27.8209 12.2729 -3.35968
45 2 21.4943 30.4089 11.3673 -3.35106
46 1 21.5643 28.2716 9.54329 -3.33965
54 2 14.0539 31.518 12.2729 -3.36583
57 2 19.0142 31.518 12.2729 -3.36583
58 1 16.5587 32.5598 13.0583 -3.26509
62 1 21.5189 32.5598 13.0583 -3.26509
23 2 17.3608 35.2151 12.2729 -3.3837
12 2 22.321 35.2151 12.2729 -3.3837
30 1 19.8776 36.2181 13.1718 -3.37984
24 1 24.8378 36.2181 13.1718 -3.37984
49 1 15.4507 29.8891 14.1747 -3.27189
39 1 20.4109 29.8891 14.1747 -3.27189
51 1 19.696 42.4248 16.4842 -3.15386
56 1 22.6551 42.114 14.957 -3.13338
59 1 19.1728 33.4951 14.1082 -3.25979
66 1 16.8169 34.5136 14.9776 -3.22471
50 1 27.6153 42.114 14.957 -3.13338
55 1 24.6562 42.4248 16.4842 -3.15386
61 1 21.7771 34.5136 14.9776 -3.22471
63 1 24.133 33.4951 14.1082 -3.25979
25 1 17.4138 37.281 14.0401 -3.33071
65 1 19.4413 35.5536 15.927 -3.20289
107 1 19.8924 39.7047 17.3241 -3.28287
127 1 17.1719 36.6796 16.7051 -3.15001
27 1 22.3741 37.281 14.0401 -3.33071
28 1 19.8915 38.2398 15.0538 -3.33165
48 1 24.8517 38.2398 15.0538 -3.33165
64 1 24.4015 35.5536 15.927 -3.20289
117 1 24.8526 39.7047 17.3241 -3.28287
140 1 22.1321 36.6796 16.7051 -3.15001
47 1 17.4068 39.3846 15.8691 -3.27582
29 1 22.367 39.3846 15.8691 -3.27582
115 1 21.94 43.5887 17.2589 -3.19541
129 1 26.9002 43.5887 17.2589 -3.19541
110 1 19.8982 43.9107 20.914 -3.38577
114 1 19.9142 41.8261 19.1505 -3.32884
111 1 22.3765 40.8934 18.0889 -3.32894
112 1 22.3914 42.8764 20.001 -3.37013
113 1 24.8745 41.8261 19.1505 -3.32884
122 1 24.8585 43.9107 20.914 -3.38577
116 1 27.3367 40.8934 18.0889 -3.32894
120 1 27.3517 42.8764 20.001 -3.37013
118 2 22.321 44.9201 21.829 -3.37082
119 1 21.4811 47.6254 20.9488 -3.36446
123 1 24.2717 44.6039 18.2057 -3.22588
124 1 23.9829 46.521 20.1479 -3.25165
126 1 21.6531 45.6306 19.0977 -3.26547
121 2 27.2812 44.9201 21.829 -3.37082
125 1 26.6134 45.6306 19.0977 -3.26547
128 1 19.3115 44.6039 18.2057 -3.22588
132 1 28.9431 46.521 20.1479 -3.25165
134 1 26.4414 47.6254 20.9488 -3.36446
135 1 20.1553 36.9749 18.2695 -3.12498
139 1 25.1155 36.9749 18.2695 -3.12498
130 2 23.9744 48.6172 21.829 -3.34284
131 1 23.1043 51.2917 20.8737 -3.35522
138 1 22.8596 49.2264 18.9947 -3.27081
133 2 28.9346 48.6172 21.829 -3.34284
136 1 25.5209 50.2427 20.0033 -3.3296
137 1 27.8199 49.2264 18.9947 -3.27081
141 2 25.6278 52.3144 21.829 -3.34704
144 1 28.0645 51.2917 20.8737 -3.35522
142 1 30.4811 50.2427 20.0033 -3.3296
143 2 30.588 52.3144 21.829 -3.34704
