ITEM: TIMESTEP
110146
ITEM: NUMBER OF ATOMS
144
ITEM: BOX BOUNDS xy xz yz pp pp pp
0.0000000000000000e+00 2.7901219101389643e+01 4.9602167291359365e+00
0.0000000000000000e+00 5.8507038939504952e+01 1.3020568913981837e+01
0.0000000000000000e+00 2.3734580741297954e+01 4.7415657150025339e+01
ITEM: ATOMS id type x y z c_peatom
70 2 0 0 0 -3.35123
69 2 4.96022 4.43589e-16 0 -3.35085
81 2 6.61362 3.69713 0 -3.35934
82 2 11.5738 3.69713 0 -3.35743
80 2 4.13351 4.80627 0.905608 -3.34197
86 1 3.96918 6.93483 2.76444 -3.29209
91 2 9.09373 4.80627 0.905608 -3.34142
92 1 8.92937 6.93067 2.76848 -3.29196
93 1 6.55729 5.85722 1.85524 -3.33467
94 2 5.78692 8.50339 0.905608 -3.36121
95 2 8.26703 7.39425 0 -3.36461
88 1 6.27812 7.928 3.78904 -3.24447
76 1 11.5174 5.85473 1.8614 -3.33434
96 2 13.2272 7.39425 0 -3.35979
104 2 10.7471 8.50339 0.905608 -3.35972
89 1 11.2374 7.93332 3.78666 -3.2447
68 2 7.44033 12.2005 0.905608 -3.35065
100 1 5.84772 10.6638 2.83881 -3.34696
102 1 8.40765 11.7574 3.78801 -3.32713
106 1 8.27442 9.58985 1.8984 -3.35526
101 1 6.00014 12.8102 4.80095 -3.32373
98 1 8.54282 9.05604 4.71892 -3.18726
77 2 12.4005 12.2005 0.905608 -3.34986
79 1 9.99013 13.3059 1.91884 -3.34796
90 1 13.2341 9.5924 1.89296 -3.35719
103 1 13.3663 11.7583 3.78811 -3.32678
105 1 10.8085 10.6662 2.83534 -3.34721
67 1 14.9501 13.3042 1.91816 -3.34806
72 1 7.58854 14.3974 2.88776 -3.33548
74 1 10.1901 15.4821 3.90545 -3.26815
78 1 12.5494 14.3998 2.88797 -3.33515
75 1 15.1498 15.4764 3.90969 -3.26791
108 1 10.9598 12.8139 4.79892 -3.32267
109 1 8.50856 13.8263 5.80597 -3.30032
73 1 7.89155 16.4948 4.93937 -3.18894
35 1 5.98772 14.6117 7.02508 -3.2915
71 1 5.70035 17.2697 6.1869 -3.16827
97 1 13.469 13.821 5.81081 -3.30141
84 1 12.8535 16.4913 4.9457 -3.18894
85 1 10.6608 17.2656 6.19081 -3.16841
21 1 10.9473 14.6088 7.0279 -3.29105
87 1 8.54419 20.1495 4.71473 -3.18822
1 1 8.42406 18.3525 7.13816 -3.1783
6 1 8.77982 20.5436 9.01782 -3.26433
9 1 6.13245 19.4164 8.11914 -3.21793
5 1 8.0275 22.2761 6.68709 -3.16274
99 1 10.7873 21.2162 5.69391 -3.1613
2 1 13.3854 18.3509 7.14159 -3.17866
3 1 11.0914 19.4115 8.12195 -3.21821
4 1 13.7392 20.5442 9.01556 -3.26375
14 1 12.9888 22.282 6.68346 -3.16365
83 1 15.7463 21.2212 5.68945 -3.16195
44 1 13.3285 26.7559 8.00326 -3.31283
15 1 10.2275 23.0848 7.90294 -3.20533
16 1 12.5233 24.1016 8.97704 -3.28521
17 1 17.4845 24.1011 8.97734 -3.28576
22 1 18.2878 26.7553 8.00358 -3.31288
20 1 15.187 23.0824 7.90641 -3.20466
36 1 10.7505 27.8137 9.03645 -3.33123
41 1 15.7113 27.8106 9.04068 -3.33145
7 1 6.42942 21.5479 10.0147 -3.30271
13 1 11.3891 21.5478 10.015 -3.30283
8 2 8.99039 22.5987 10.9617 -3.33224
10 2 13.9506 22.5987 10.9617 -3.33304
31 2 12.2972 26.2958 10.9617 -3.34902
34 1 9.91498 25.2011 9.93189 -3.34473
18 1 14.8739 25.1993 9.93404 -3.34635
19 2 17.2574 26.2958 10.9617 -3.34801
32 2 9.8171 27.405 11.8673 -3.3555
33 2 12.2972 28.5141 12.7729 -3.36025
42 1 13.162 28.9151 9.96953 -3.36621
52 1 9.85561 29.6096 13.772 -3.37519
53 2 10.6438 29.9929 10.9617 -3.35889
60 2 13.1239 31.1021 11.8673 -3.36572
37 2 17.2574 28.5141 12.7729 -3.36073
38 1 14.8122 29.6065 13.7689 -3.37861
40 2 14.7773 27.405 11.8673 -3.35624
43 2 15.604 29.9929 10.9617 -3.36026
45 2 18.0841 31.1021 11.8673 -3.36793
46 1 18.1224 28.9148 9.97133 -3.36674
26 2 11.4705 34.7992 11.8673 -3.34989
54 2 10.6438 32.2112 12.7729 -3.3494
58 1 13.0839 33.3049 13.77 -3.36066
11 2 16.4307 34.7992 11.8673 -3.34631
23 2 13.9506 35.9083 12.7729 -3.35472
57 2 15.604 32.2112 12.7729 -3.34966
62 1 18.034 33.3342 13.7912 -3.35294
12 2 18.9108 35.9083 12.7729 -3.34871
30 1 16.4149 36.9845 13.742 -3.35781
24 1 21.3728 36.9928 13.7223 -3.3776
49 1 12.3249 30.6912 14.7096 -3.37183
39 1 17.2852 30.7108 14.6933 -3.36943
66 1 12.8848 35.5138 15.6399 -3.26539
50 1 9.81751 31.8042 15.6093 -3.3291
63 1 10.5389 34.399 14.7026 -3.34845
59 1 15.5082 34.4195 14.7299 -3.35138
61 1 17.7991 35.5776 15.7721 -3.25452
56 1 14.785 31.7968 15.6124 -3.33231
127 1 12.2511 37.1735 18.0795 -3.14572
25 1 13.98 38.1136 14.5599 -3.29998
65 1 15.0414 36.7137 16.6223 -3.13298
28 1 16.598 39.0839 15.6577 -3.27506
47 1 14.2478 40.1863 16.5725 -3.23122
140 1 17.037 37.1957 18.1762 -3.13947
135 1 14.4053 38.3916 18.9917 -3.17202
64 1 20.1813 36.6698 16.4869 -3.11342
27 1 18.9284 38.1127 14.5675 -3.29059
48 1 21.57 39.1215 15.6171 -3.29059
29 1 19.2072 40.1827 16.5758 -3.22463
139 1 19.3863 38.2726 18.9454 -3.16859
51 1 17.2078 43.9458 16.682 -3.31357
117 1 16.8812 41.277 17.5758 -3.18557
111 1 14.6206 42.4557 18.4191 -3.1616
55 1 22.1689 43.9463 16.6939 -3.31666
107 1 21.8387 41.269 17.5487 -3.18636
129 1 19.6384 45.1273 17.5281 -3.26417
116 1 19.6019 42.4391 18.4325 -3.16356
115 1 14.6903 45.1458 17.5316 -3.25608
128 1 22.0958 45.6009 19.0229 -3.25765
114 1 12.5434 42.9165 19.9193 -3.13896
112 1 15.2648 44.0447 20.8573 -3.26567
113 1 17.5454 42.9326 19.9559 -3.13186
120 1 20.2272 44.094 20.8423 -3.26536
110 1 12.9371 45.1827 21.8209 -3.3551
123 1 17.1215 45.6 19.0388 -3.25631
118 2 15.5007 46.3065 22.829 -3.35479
119 1 14.6803 48.9239 21.8361 -3.37027
122 1 17.9073 45.2096 21.8173 -3.34693
124 1 17.1503 47.826 20.9313 -3.33232
126 1 14.6417 46.7144 19.9775 -3.29366
121 2 20.4609 46.3065 22.829 -3.34713
125 1 19.6249 46.7869 19.8644 -3.32696
132 1 22.1028 47.8127 20.9746 -3.33231
134 1 19.6343 48.9251 21.8367 -3.37555
138 1 16.7068 50.5115 19.9725 -3.22315
130 2 17.1541 50.0036 22.829 -3.36475
131 1 16.389 52.6042 21.9603 -3.29513
137 1 21.6791 50.5205 20.0044 -3.21958
133 2 22.1143 50.0036 22.829 -3.36492
136 1 19.0317 51.6315 20.8963 -3.27567
141 2 18.8075 53.7008 22.829 -3.36177
144 1 21.3543 52.6008 21.9683 -3.29377
142 1 24.0053 51.6022 20.8816 -3.2696
143 2 23.7677 53.7008 22.829 -3.3724
