LAMMPS (29 Aug 2024 - Update 2)
#---------------------------------------------------------------------------------------------------
# Initilise important features of simulation
#---------------------------------------------------------------------------------------------------
units 		metal	# Use metals units (Ang, ps, eV, bar, etc.)
dimension 	3		# Run the simulation in three dimensions
boundary 	p p p	# Use periodic boundaries in all three dimensions
atom_style 	atomic	#
#box tilt large		# Allow larger than normal tilt factors

variable T_start equal 600
variable T_end equal 200
variable tstep equal 0.002
timestep ${tstep}
timestep 0.002

read_data   lammps.txt	# Read in atom coordinates from a file
Reading data file ...
  triclinic box = (0 0 0) to (9.9204335 11.091382 22.734581) with tilt (4.9602167 2.4801084 32.165007)
WARNING: Triclinic box skew is large. LAMMPS will run inefficiently. (src/domain.cpp:221)
  1 by 1 by 1 MPI processor grid
  reading atoms ...
  144 atoms
  read_data CPU = 0.000 seconds

#---------------------------------------------------------------------------------------------------
# Define how the forces between the atoms will be modelled
#---------------------------------------------------------------------------------------------------
pair_style eam/alloy
pair_coeff * * Zope-Ti-Al-2003.eam.alloy.txt Al Al

#---------------------------------------------------------------------------------------------------
# Set behaviour of simulation
#---------------------------------------------------------------------------------------------------
group g_fixed type 2
36 atoms in group g_fixed
group g_other type 1
108 atoms in group g_other
fix f_freeze g_fixed setforce 0.0 0.0 0.0 	# Hold atoms of type 2 fixed in place
#fix f_constrain g_other setforce 0.0 0.0 NULL 	# All atoms of type 1 to move only in z direction

#---------------------------------------------------------------------------------------------------
# Specify what information to write out
#---------------------------------------------------------------------------------------------------
thermo_style custom step atoms temp pe ke etotal fmax
thermo_modify format 6 %20.10f
thermo 1000

#compute statom all stress/atom NULL
compute peatom all pe/atom
dump 1 all custom 100000 dump.* id type x y z c_peatom
dump_modify 1 first yes


#---------------------------------------------------------------------------------------------------
# Initial relaxation
#---------------------------------------------------------------------------------------------------
velocity all set 0.0 0.0 0.0

min_style 	cg
min_modify dmax 0.1
minimize 	0.0 1.0e-6 10000 100000
Neighbor list info ...
  update: every = 1 steps, delay = 0 steps, check = yes
  max neighbors/atom: 2000, page size: 100000
  master list distance cutoff = 8.724884
  ghost atom cutoff = 8.724884
  binsize = 4.362442, bins = 4 10 6
  1 neighbor lists, perpetual/occasional/extra = 1 0 0
  (1) pair eam/alloy, perpetual
      attributes: half, newton on
      pair build: half/bin/atomonly/newton/tri
      stencil: half/bin/3d/tri
      bin: standard
Per MPI rank memory allocation (min/avg/max) = 4.691 | 4.691 | 4.691 Mbytes
   Step        Atoms         Temp          PotEng         KinEng         TotEng          Fmax     
         0         144   0             -448.13754      0                  -448.1375379091  9.2280711    
        83         144   0             -475.89928      0                  -475.8992756563  1.14185e-07  
Loop time of 0.0184936 on 1 procs for 83 steps with 144 atoms

82.6% CPU use with 1 MPI tasks x no OpenMP threads

Minimization stats:
  Stopping criterion = force tolerance
  Energy initial, next-to-last, final = 
     -448.137537909099  -475.899275656262  -475.899275656263
  Force two-norm initial, final = 30.435551 7.219589e-07
  Force max component initial, final = 9.2280711 1.14185e-07
  Final line search alpha, max atom move = 1 1.14185e-07
  Iterations, force evaluations = 83 155

MPI task timing breakdown:
Section |  min time  |  avg time  |  max time  |%varavg| %total
---------------------------------------------------------------
Pair    | 0.013352   | 0.013352   | 0.013352   |   0.0 | 72.20
Neigh   | 0.00058921 | 0.00058921 | 0.00058921 |   0.0 |  3.19
Comm    | 0.00083037 | 0.00083037 | 0.00083037 |   0.0 |  4.49
Output  | 0          | 0          | 0          |   0.0 |  0.00
Modify  | 2.4529e-05 | 2.4529e-05 | 2.4529e-05 |   0.0 |  0.13
Other   |            | 0.003697   |            |       | 19.99

Nlocal:            144 ave         144 max         144 min
Histogram: 1 0 0 0 0 0 0 0 0 0
Nghost:           2916 ave        2916 max        2916 min
Histogram: 1 0 0 0 0 0 0 0 0 0
Neighs:          11536 ave       11536 max       11536 min
Histogram: 1 0 0 0 0 0 0 0 0 0

Total # of neighbors = 11536
Ave neighs/atom = 80.111111
Neighbor list builds = 1
Dangerous builds = 0
#---------------------------------------------------------------------------------------------------
# Anneal boundary structures
#---------------------------------------------------------------------------------------------------
reset_timestep 100000
fix md g_other nvt temp ${T_start} ${T_end} $(100.0*v_tstep)
fix md g_other nvt temp 600 ${T_end} $(100.0*v_tstep)
fix md g_other nvt temp 600 200 $(100.0*v_tstep)
fix md g_other nvt temp 600 200 0.2000000000000000111

velocity all create ${T_start} 4928459 rot yes mom yes dist gaussian
velocity all create 600 4928459 rot yes mom yes dist gaussian
run 10000
Per MPI rank memory allocation (min/avg/max) = 4.948 | 4.948 | 4.948 Mbytes
   Step        Atoms         Temp          PotEng         KinEng         TotEng          Fmax     
    100000         144   600           -475.89928      11.09052           -464.8087552153  1.1418501e-07
    101000         144   593.50166     -468.97821      10.970404          -458.0078109255  1.5051289    
    102000         144   603.84201     -466.91476      11.161537          -455.7532227513  1.2895491    
    103000         144   528.4323      -469.23073      9.7676487          -459.4630778819  1.2623901    
    104000         144   548.02837     -469.22411      10.129866          -459.0942472915  1.242687     
    105000         144   484.56999     -469.74899      8.956889           -460.7920976007  1.3125541    
    106000         144   434.27723     -470.46236      8.0272674          -462.4350906832  1.130092     
    107000         144   412.76998     -471.02359      7.6297231          -463.3938710638  0.95402783   
    108000         144   410.91826     -472.14633      7.5954955          -464.5508384451  0.87163999   
    109000         144   393.15551     -472.39129      7.2671654          -465.1241224643  0.84001714   
    110000         144   348.84826     -472.98664      6.4481812          -466.5384627801  0.93064517   
Loop time of 0.923906 on 1 procs for 10000 steps with 144 atoms

Performance: 1870.320 ns/day, 0.013 hours/ns, 10823.609 timesteps/s, 1.559 Matom-step/s
99.9% CPU use with 1 MPI tasks x no OpenMP threads

MPI task timing breakdown:
Section |  min time  |  avg time  |  max time  |%varavg| %total
---------------------------------------------------------------
Pair    | 0.79889    | 0.79889    | 0.79889    |   0.0 | 86.47
Neigh   | 0.048847   | 0.048847   | 0.048847   |   0.0 |  5.29
Comm    | 0.05306    | 0.05306    | 0.05306    |   0.0 |  5.74
Output  | 6.4584e-05 | 6.4584e-05 | 6.4584e-05 |   0.0 |  0.01
Modify  | 0.0108     | 0.0108     | 0.0108     |   0.0 |  1.17
Other   |            | 0.01225    |            |       |  1.33

Nlocal:            144 ave         144 max         144 min
Histogram: 1 0 0 0 0 0 0 0 0 0
Nghost:           2904 ave        2904 max        2904 min
Histogram: 1 0 0 0 0 0 0 0 0 0
Neighs:          11528 ave       11528 max       11528 min
Histogram: 1 0 0 0 0 0 0 0 0 0

Total # of neighbors = 11528
Ave neighs/atom = 80.055556
Neighbor list builds = 90
Dangerous builds = 0
unfix md

#---------------------------------------------------------------------------------------------------
# Final relaxation
#---------------------------------------------------------------------------------------------------
velocity all set 0.0 0.0 0.0

min_style 	cg
min_modify dmax 0.1
minimize 	0.0 1.0e-6 10000 100000
Per MPI rank memory allocation (min/avg/max) = 6.073 | 6.073 | 6.073 Mbytes
   Step        Atoms         Temp          PotEng         KinEng         TotEng          Fmax     
    110000         144   0             -472.98664      0                  -472.9866439881  0.93064517   
    110108         144   0             -475.90467      0                  -475.9046683478  2.3419368e-07
Loop time of 0.0208629 on 1 procs for 108 steps with 144 atoms

98.0% CPU use with 1 MPI tasks x no OpenMP threads

Minimization stats:
  Stopping criterion = force tolerance
  Energy initial, next-to-last, final = 
     -472.986643988072  -475.904668347845  -475.904668347844
  Force two-norm initial, final = 5.112097 9.3316602e-07
  Force max component initial, final = 0.93064517 2.3419368e-07
  Final line search alpha, max atom move = 1 2.3419368e-07
  Iterations, force evaluations = 108 214

MPI task timing breakdown:
Section |  min time  |  avg time  |  max time  |%varavg| %total
---------------------------------------------------------------
Pair    | 0.018881   | 0.018881   | 0.018881   |   0.0 | 90.50
Neigh   | 0          | 0          | 0          |   0.0 |  0.00
Comm    | 0.001097   | 0.001097   | 0.001097   |   0.0 |  5.26
Output  | 0          | 0          | 0          |   0.0 |  0.00
Modify  | 3.33e-05   | 3.33e-05   | 3.33e-05   |   0.0 |  0.16
Other   |            | 0.0008512  |            |       |  4.08

Nlocal:            144 ave         144 max         144 min
Histogram: 1 0 0 0 0 0 0 0 0 0
Nghost:           2903 ave        2903 max        2903 min
Histogram: 1 0 0 0 0 0 0 0 0 0
Neighs:          11534 ave       11534 max       11534 min
Histogram: 1 0 0 0 0 0 0 0 0 0

Total # of neighbors = 11534
Ave neighs/atom = 80.097222
Neighbor list builds = 0
Dangerous builds = 0

Total wall time: 0:00:00
