LAMMPS (29 Aug 2024 - Update 2)
#---------------------------------------------------------------------------------------------------
# Initilise important features of simulation
#---------------------------------------------------------------------------------------------------
units 		metal	# Use metals units (Ang, ps, eV, bar, etc.)
dimension 	3		# Run the simulation in three dimensions
boundary 	p p p	# Use periodic boundaries in all three dimensions
atom_style 	atomic	#
#box tilt large		# Allow larger than normal tilt factors

variable T_start equal 600
variable T_end equal 200
variable tstep equal 0.002
timestep ${tstep}
timestep 0.002

read_data   lammps.txt	# Read in atom coordinates from a file
Reading data file ...
  triclinic box = (0 0 0) to (9.9204335 11.091382 25.734581) with tilt (4.9602167 7.4403251 34.937853)
WARNING: Triclinic box skew is large. LAMMPS will run inefficiently. (src/domain.cpp:221)
  1 by 1 by 1 MPI processor grid
  reading atoms ...
  144 atoms
  read_data CPU = 0.001 seconds

#---------------------------------------------------------------------------------------------------
# Define how the forces between the atoms will be modelled
#---------------------------------------------------------------------------------------------------
pair_style eam/alloy
pair_coeff * * Zope-Ti-Al-2003.eam.alloy.txt Al Al

#---------------------------------------------------------------------------------------------------
# Set behaviour of simulation
#---------------------------------------------------------------------------------------------------
group g_fixed type 2
36 atoms in group g_fixed
group g_other type 1
108 atoms in group g_other
fix f_freeze g_fixed setforce 0.0 0.0 0.0 	# Hold atoms of type 2 fixed in place
#fix f_constrain g_other setforce 0.0 0.0 NULL 	# All atoms of type 1 to move only in z direction

#---------------------------------------------------------------------------------------------------
# Specify what information to write out
#---------------------------------------------------------------------------------------------------
thermo_style custom step atoms temp pe ke etotal fmax
thermo_modify format 6 %20.10f
thermo 1000

#compute statom all stress/atom NULL
compute peatom all pe/atom
dump 1 all custom 100000 dump.* id type x y z c_peatom
dump_modify 1 first yes


#---------------------------------------------------------------------------------------------------
# Initial relaxation
#---------------------------------------------------------------------------------------------------
velocity all set 0.0 0.0 0.0

min_style 	cg
min_modify dmax 0.1
minimize 	0.0 1.0e-6 10000 100000
Neighbor list info ...
  update: every = 1 steps, delay = 0 steps, check = yes
  max neighbors/atom: 2000, page size: 100000
  master list distance cutoff = 8.724884
  ghost atom cutoff = 8.724884
  binsize = 4.362442, bins = 6 11 6
  1 neighbor lists, perpetual/occasional/extra = 1 0 0
  (1) pair eam/alloy, perpetual
      attributes: half, newton on
      pair build: half/bin/atomonly/newton/tri
      stencil: half/bin/3d/tri
      bin: standard
Per MPI rank memory allocation (min/avg/max) = 4.659 | 4.659 | 4.659 Mbytes
   Step        Atoms         Temp          PotEng         KinEng         TotEng          Fmax     
         0         144   0             -460.75038      0                  -460.7503804615  0.76799786   
        60         144   0             -465.77188      0                  -465.7718825748  1.2831734e-07
Loop time of 0.00950867 on 1 procs for 60 steps with 144 atoms

97.4% CPU use with 1 MPI tasks x no OpenMP threads

Minimization stats:
  Stopping criterion = force tolerance
  Energy initial, next-to-last, final = 
     -460.750380461461  -465.771882574771  -465.771882574767
  Force two-norm initial, final = 3.8551756 8.6912911e-07
  Force max component initial, final = 0.76799786 1.2831734e-07
  Final line search alpha, max atom move = 1 1.2831734e-07
  Iterations, force evaluations = 60 114

MPI task timing breakdown:
Section |  min time  |  avg time  |  max time  |%varavg| %total
---------------------------------------------------------------
Pair    | 0.0084077  | 0.0084077  | 0.0084077  |   0.0 | 88.42
Neigh   | 0          | 0          | 0          |   0.0 |  0.00
Comm    | 0.00049304 | 0.00049304 | 0.00049304 |   0.0 |  5.19
Output  | 0          | 0          | 0          |   0.0 |  0.00
Modify  | 1.6171e-05 | 1.6171e-05 | 1.6171e-05 |   0.0 |  0.17
Other   |            | 0.0005917  |            |       |  6.22

Nlocal:            144 ave         144 max         144 min
Histogram: 1 0 0 0 0 0 0 0 0 0
Nghost:           2436 ave        2436 max        2436 min
Histogram: 1 0 0 0 0 0 0 0 0 0
Neighs:          10528 ave       10528 max       10528 min
Histogram: 1 0 0 0 0 0 0 0 0 0

Total # of neighbors = 10528
Ave neighs/atom = 73.111111
Neighbor list builds = 0
Dangerous builds = 0
#---------------------------------------------------------------------------------------------------
# Anneal boundary structures
#---------------------------------------------------------------------------------------------------
reset_timestep 100000
fix md g_other nvt temp ${T_start} ${T_end} $(100.0*v_tstep)
fix md g_other nvt temp 600 ${T_end} $(100.0*v_tstep)
fix md g_other nvt temp 600 200 $(100.0*v_tstep)
fix md g_other nvt temp 600 200 0.2000000000000000111

velocity all create ${T_start} 4928459 rot yes mom yes dist gaussian
velocity all create 600 4928459 rot yes mom yes dist gaussian
run 10000
Per MPI rank memory allocation (min/avg/max) = 4.916 | 4.916 | 4.916 Mbytes
   Step        Atoms         Temp          PotEng         KinEng         TotEng          Fmax     
    100000         144   600           -465.77188      11.09052           -454.6813621338  1.2831734e-07
    101000         144   594.61233     -460.2567       10.990934          -449.2657695739  1.0497186    
    102000         144   625.60778     -460.36912      11.56386           -448.8052597206  1.2925704    
    103000         144   597.64912     -461.18507      11.047066          -450.1380068363  1.0573546    
    104000         144   507.43483     -462.02093      9.3795272          -452.6414002358  0.93560847   
    105000         144   511.02366     -463.08371      9.4458639          -453.6378447668  1.1380232    
    106000         144   467.16653     -463.21563      8.6351998          -454.5804267008  1.0213987    
    107000         144   406.79678     -463.97949      7.5193134          -456.4601771609  1.1157489    
    108000         144   427.56349     -464.10845      7.9031693          -456.2052787154  0.97829286   
    109000         144   371.57721     -465.38072      6.8683078          -458.5124125068  1.0950734    
    110000         144   343.84489     -465.90463      6.3556981          -459.5489269648  0.8694713    
Loop time of 0.816834 on 1 procs for 10000 steps with 144 atoms

Performance: 2115.484 ns/day, 0.011 hours/ns, 12242.383 timesteps/s, 1.763 Matom-step/s
99.3% CPU use with 1 MPI tasks x no OpenMP threads

MPI task timing breakdown:
Section |  min time  |  avg time  |  max time  |%varavg| %total
---------------------------------------------------------------
Pair    | 0.70578    | 0.70578    | 0.70578    |   0.0 | 86.40
Neigh   | 0.044869   | 0.044869   | 0.044869   |   0.0 |  5.49
Comm    | 0.044506   | 0.044506   | 0.044506   |   0.0 |  5.45
Output  | 8.3957e-05 | 8.3957e-05 | 8.3957e-05 |   0.0 |  0.01
Modify  | 0.010751   | 0.010751   | 0.010751   |   0.0 |  1.32
Other   |            | 0.01084    |            |       |  1.33

Nlocal:            144 ave         144 max         144 min
Histogram: 1 0 0 0 0 0 0 0 0 0
Nghost:           2469 ave        2469 max        2469 min
Histogram: 1 0 0 0 0 0 0 0 0 0
Neighs:          10200 ave       10200 max       10200 min
Histogram: 1 0 0 0 0 0 0 0 0 0

Total # of neighbors = 10200
Ave neighs/atom = 70.833333
Neighbor list builds = 105
Dangerous builds = 0
unfix md

#---------------------------------------------------------------------------------------------------
# Final relaxation
#---------------------------------------------------------------------------------------------------
velocity all set 0.0 0.0 0.0

min_style 	cg
min_modify dmax 0.1
minimize 	0.0 1.0e-6 10000 100000
Per MPI rank memory allocation (min/avg/max) = 6.042 | 6.042 | 6.042 Mbytes
   Step        Atoms         Temp          PotEng         KinEng         TotEng          Fmax     
    110000         144   0             -465.90463      0                  -465.9046250245  0.8694713    
    110065         144   0             -468.6816       0                  -468.6815997770  1.88032e-07  
Loop time of 0.0111589 on 1 procs for 65 steps with 144 atoms

96.1% CPU use with 1 MPI tasks x no OpenMP threads

Minimization stats:
  Stopping criterion = force tolerance
  Energy initial, next-to-last, final = 
     -465.904625024535  -468.681599777001     -468.681599777
  Force two-norm initial, final = 4.2546305 9.7022309e-07
  Force max component initial, final = 0.8694713 1.88032e-07
  Final line search alpha, max atom move = 1 1.88032e-07
  Iterations, force evaluations = 65 127

MPI task timing breakdown:
Section |  min time  |  avg time  |  max time  |%varavg| %total
---------------------------------------------------------------
Pair    | 0.0097628  | 0.0097628  | 0.0097628  |   0.0 | 87.49
Neigh   | 0          | 0          | 0          |   0.0 |  0.00
Comm    | 0.00056154 | 0.00056154 | 0.00056154 |   0.0 |  5.03
Output  | 0          | 0          | 0          |   0.0 |  0.00
Modify  | 1.8085e-05 | 1.8085e-05 | 1.8085e-05 |   0.0 |  0.16
Other   |            | 0.0008165  |            |       |  7.32

Nlocal:            144 ave         144 max         144 min
Histogram: 1 0 0 0 0 0 0 0 0 0
Nghost:           2481 ave        2481 max        2481 min
Histogram: 1 0 0 0 0 0 0 0 0 0
Neighs:          10236 ave       10236 max       10236 min
Histogram: 1 0 0 0 0 0 0 0 0 0

Total # of neighbors = 10236
Ave neighs/atom = 71.083333
Neighbor list builds = 0
Dangerous builds = 0

Total wall time: 0:00:00
