ITEM: TIMESTEP
110073
ITEM: NUMBER OF ATOMS
144
ITEM: BOX BOUNDS xy xz yz pp pp pp
0.0000000000000000e+00 3.8441679650803508e+01 4.9602167291359365e+00
0.0000000000000000e+00 5.7120616215819993e+01 2.3561029463395698e+01
0.0000000000000000e+00 2.0734580741297954e+01 4.6029234426340388e+01
ITEM: ATOMS id type x y z c_peatom
70 2 0 0 0 -3.33025
82 2 1.65341 3.69713 0 -3.3471
69 2 4.96022 2.46461e-16 0 -3.32157
81 2 6.61362 3.69713 0 -3.35121
80 2 4.13351 4.80627 0.905608 -3.32928
86 1 4.09919 6.79921 2.64199 -3.26242
91 2 9.09373 4.80627 0.905608 -3.33101
92 1 9.0592 6.79495 2.64693 -3.25644
93 1 6.59353 5.849 1.74981 -3.35228
94 2 5.78692 8.50339 0.905608 -3.29882
95 2 8.26703 7.39425 0 -3.36755
76 1 11.5549 5.84998 1.754 -3.35051
96 2 13.2272 7.39425 0 -3.32897
104 2 10.7471 8.50339 0.905608 -3.29102
68 2 7.44033 12.2005 0.905608 -3.28413
100 1 5.95514 10.5992 2.40943 -3.14774
102 1 8.43245 11.6132 3.2712 -3.21386
106 1 8.34479 9.38855 1.88592 -3.30139
77 2 12.4005 12.2005 0.905608 -3.29725
90 1 13.3023 9.39518 1.87334 -3.30515
103 1 13.3933 11.6134 3.26866 -3.20991
105 1 10.9132 10.6026 2.40786 -3.15219
108 1 10.9974 12.6055 4.16314 -3.25576
101 1 15.9571 12.6065 4.15712 -3.257
67 1 14.9213 13.266 1.65673 -3.33837
72 1 7.54074 14.2766 2.56196 -3.27362
109 1 8.53636 13.3973 5.13449 -3.27305
79 1 9.96542 13.2645 1.65899 -3.33521
74 1 10.0466 15.2251 3.48412 -3.32416
78 1 12.4998 14.2747 2.55898 -3.27889
84 1 12.5539 16.2013 4.31873 -3.29066
73 1 17.514 16.2049 4.32102 -3.29051
75 1 15.0075 15.2227 3.48366 -3.3259
71 1 15.0625 17.0647 5.42139 -3.34327
98 1 13.6457 19.323 4.8132 -3.13611
88 1 11.3454 19.0132 3.60417 -3.33491
99 1 10.1242 21.3121 4.7558 -2.97033
89 1 16.305 19.0167 3.60488 -3.33456
87 1 18.6052 19.3225 4.81341 -3.13561
83 1 15.0862 21.3098 4.75586 -2.97144
97 1 13.497 13.3956 5.13501 -3.27414
85 1 10.1027 17.0656 5.42194 -3.3422
35 1 11.0328 14.307 6.08078 -3.27471
21 1 15.9917 14.3021 6.08172 -3.27515
2 1 17.5506 17.5707 6.48619 -2.97568
1 1 12.588 17.5691 6.48156 -2.97673
6 1 13.93 19.8009 7.62681 -3.29974
7 1 11.694 20.9089 8.63987 -3.27486
8 2 14.2606 21.9055 9.46168 -3.34644
9 1 11.2169 19.5924 6.38012 -3.09085
5 1 12.6351 21.8143 5.82816 -3.32455
3 1 16.1758 19.589 6.386 -3.09258
10 2 19.2208 21.9055 9.46168 -3.35344
13 1 16.6574 20.9158 8.63529 -3.27142
14 1 17.5963 21.8119 5.8308 -3.32577
4 1 18.8935 19.794 7.63141 -3.30613
22 1 13.5211 26.2467 6.98688 -3.26251
17 1 12.646 23.5905 7.76846 -3.30495
15 1 15.1381 22.636 6.91893 -3.29154
16 1 17.6069 23.5909 7.76965 -3.30581
31 2 17.5674 25.6026 9.46168 -3.3147
34 1 15.108 24.5951 8.68555 -3.29182
44 1 18.482 26.245 6.99041 -3.26234
18 1 20.0665 24.5954 8.69191 -3.30711
19 2 22.5277 25.6026 9.46168 -3.32742
20 1 20.0995 22.6349 6.92168 -3.29263
36 1 15.9358 27.1937 7.92572 -3.18849
42 1 18.4684 28.2468 8.80582 -3.22004
53 2 15.914 29.2997 9.46168 -3.29629
41 1 20.8974 27.194 7.91849 -3.18637
43 2 20.8742 29.2997 9.46168 -3.30872
46 1 23.4249 28.2443 8.81691 -3.23348
32 2 15.0873 26.7117 10.3673 -3.26101
33 2 17.5674 27.8209 11.2729 -3.33465
49 1 17.5989 29.9286 12.8084 -3.15682
52 1 15.0406 29.008 11.8947 -3.18392
60 2 18.3941 30.4089 10.3673 -3.26577
37 2 22.5277 27.8209 11.2729 -3.29782
38 1 20.0169 28.8256 12.0185 -3.27748
39 1 22.434 29.8672 12.8923 -3.25277
40 2 20.0475 26.7117 10.3673 -3.28233
45 2 23.3544 30.4089 10.3673 -3.30054
54 2 15.914 31.518 11.2729 -3.32057
58 1 18.3519 32.4785 12.0511 -3.28702
66 1 18.1163 34.32 13.8169 -3.22495
11 2 21.7009 34.106 10.3673 -3.32607
57 2 20.8742 31.518 11.2729 -3.32494
59 1 20.8316 33.474 12.9212 -3.22046
61 1 23.1743 34.7344 14.061 -3.41634
62 1 23.3056 32.5839 12.0847 -3.31904
26 2 26.6612 34.106 10.3673 -3.31508
63 1 25.6643 33.5302 12.9737 -3.26709
50 1 24.8778 30.9131 13.7495 -3.25365
23 2 19.2208 35.2151 11.2729 -3.41689
25 1 19.5809 37.7459 12.905 -3.16411
28 1 22.2312 37.5617 14.2962 -3.15207
30 1 21.8094 36.268 12.0009 -3.25893
65 1 20.2924 35.6008 14.0695 -3.04759
64 1 25.8256 35.285 14.947 -3.22028
12 2 24.1811 35.2151 11.2729 -3.35597
24 1 26.7132 36.1902 12.0553 -3.23845
27 1 24.5 37.2704 13.1158 -3.24521
48 1 27.4163 37.3074 14.2727 -3.08285
29 1 25.7459 39.208 14.5461 -3.10211
47 1 20.9691 39.6818 14.2714 -2.99717
51 1 22.4362 42.7061 14.7051 -3.28927
107 1 23.3952 39.9506 15.3883 -3.29562
56 1 24.9394 41.89 13.8378 -3.29875
55 1 27.4083 42.8907 14.6523 -3.24814
117 1 28.3068 40.0241 15.2704 -3.30438
129 1 29.9212 43.6964 15.6283 -3.24093
115 1 24.9554 43.9506 15.4979 -3.30643
140 1 18.5844 35.6752 16.0568 -3.12014
139 1 19.7868 37.8667 15.7979 -3.20972
138 1 21.9977 38.2672 17.1689 -3.29994
135 1 24.2807 37.064 16.1461 -3.33779
114 1 23.4727 41.9183 17.2257 -3.32812
110 1 23.4736 43.808 19.1315 -3.28765
116 1 20.888 40.8999 16.4628 -3.27708
111 1 25.9232 41.015 16.3618 -3.2363
112 1 25.9512 42.8145 18.1933 -3.26081
113 1 28.3863 41.8647 17.2526 -3.34586
122 1 28.4955 43.8648 19.0761 -3.32616
120 1 30.8931 42.8451 18.1758 -3.27497
128 1 22.4737 44.4781 16.6016 -3.27014
127 1 26.531 46.9213 16.1712 -3.12952
118 2 26.0411 44.9201 19.829 -3.30161
119 1 25.1786 47.6901 18.7538 -3.38615
123 1 27.5108 44.4895 16.639 -3.23343
124 1 27.6998 46.567 18.2892 -3.15121
126 1 25.0146 45.324 17.6164 -3.07844
121 2 31.0014 44.9201 19.829 -3.32929
125 1 30.0066 45.5748 17.4079 -3.21961
132 1 32.49 46.5112 18.3291 -3.14694
134 1 30.149 47.7063 18.9677 -3.28189
130 2 27.6945 48.6172 19.829 -3.30222
131 1 26.8912 51.2984 18.9984 -3.33917
137 1 31.9013 49.0769 16.9851 -3.3932
133 2 32.6548 48.6172 19.829 -3.28206
136 1 29.4065 50.2567 17.978 -3.32277
141 2 29.3479 52.3144 19.829 -3.35153
144 1 31.816 51.2292 18.951 -3.34884
142 1 34.2478 50.2728 18.0713 -3.30482
143 2 34.3082 52.3144 19.829 -3.34517
