LAMMPS (29 Aug 2024 - Update 2)
#---------------------------------------------------------------------------------------------------
# Initilise important features of simulation
#---------------------------------------------------------------------------------------------------
units 		metal	# Use metals units (Ang, ps, eV, bar, etc.)
dimension 	3		# Run the simulation in three dimensions
boundary 	p p p	# Use periodic boundaries in all three dimensions
atom_style 	atomic	#
#box tilt large		# Allow larger than normal tilt factors

variable T_start equal 600
variable T_end equal 200
variable tstep equal 0.002
timestep ${tstep}
timestep 0.002

read_data   lammps.txt	# Read in atom coordinates from a file
Reading data file ...
  triclinic box = (0 0 0) to (9.9204335 11.091382 20.734581) with tilt (4.9602167 23.561029 46.029234)
WARNING: Triclinic box skew is large. LAMMPS will run inefficiently. (src/domain.cpp:221)
  1 by 1 by 1 MPI processor grid
  reading atoms ...
  144 atoms
  read_data CPU = 0.001 seconds

#---------------------------------------------------------------------------------------------------
# Define how the forces between the atoms will be modelled
#---------------------------------------------------------------------------------------------------
pair_style eam/alloy
pair_coeff * * Zope-Ti-Al-2003.eam.alloy.txt Al Al

#---------------------------------------------------------------------------------------------------
# Set behaviour of simulation
#---------------------------------------------------------------------------------------------------
group g_fixed type 2
36 atoms in group g_fixed
group g_other type 1
108 atoms in group g_other
fix f_freeze g_fixed setforce 0.0 0.0 0.0 	# Hold atoms of type 2 fixed in place
#fix f_constrain g_other setforce 0.0 0.0 NULL 	# All atoms of type 1 to move only in z direction

#---------------------------------------------------------------------------------------------------
# Specify what information to write out
#---------------------------------------------------------------------------------------------------
thermo_style custom step atoms temp pe ke etotal fmax
thermo_modify format 6 %20.10f
thermo 1000

#compute statom all stress/atom NULL
compute peatom all pe/atom
dump 1 all custom 100000 dump.* id type x y z c_peatom
dump_modify 1 first yes


#---------------------------------------------------------------------------------------------------
# Initial relaxation
#---------------------------------------------------------------------------------------------------
velocity all set 0.0 0.0 0.0

min_style 	cg
min_modify dmax 0.1
minimize 	0.0 1.0e-6 10000 100000
Neighbor list info ...
  update: every = 1 steps, delay = 0 steps, check = yes
  max neighbors/atom: 2000, page size: 100000
  master list distance cutoff = 8.724884
  ghost atom cutoff = 8.724884
  binsize = 4.362442, bins = 9 14 5
  1 neighbor lists, perpetual/occasional/extra = 1 0 0
  (1) pair eam/alloy, perpetual
      attributes: half, newton on
      pair build: half/bin/atomonly/newton/tri
      stencil: half/bin/3d/tri
      bin: standard
Per MPI rank memory allocation (min/avg/max) = 4.739 | 4.739 | 4.739 Mbytes
   Step        Atoms         Temp          PotEng         KinEng         TotEng          Fmax     
         0         144   0             -405.92276      0                  -405.9227600559  10.795539    
        86         144   0             -470.0836       0                  -470.0835951248  1.1242517e-07
Loop time of 0.0158403 on 1 procs for 86 steps with 144 atoms

99.5% CPU use with 1 MPI tasks x no OpenMP threads

Minimization stats:
  Stopping criterion = force tolerance
  Energy initial, next-to-last, final = 
     -405.922760055919  -470.083595124853   -470.08359512485
  Force two-norm initial, final = 52.014644 7.3929049e-07
  Force max component initial, final = 10.795539 1.1242517e-07
  Final line search alpha, max atom move = 1 1.1242517e-07
  Iterations, force evaluations = 86 152

MPI task timing breakdown:
Section |  min time  |  avg time  |  max time  |%varavg| %total
---------------------------------------------------------------
Pair    | 0.013885   | 0.013885   | 0.013885   |   0.0 | 87.65
Neigh   | 0.00046871 | 0.00046871 | 0.00046871 |   0.0 |  2.96
Comm    | 0.0009315  | 0.0009315  | 0.0009315  |   0.0 |  5.88
Output  | 0          | 0          | 0          |   0.0 |  0.00
Modify  | 2.4337e-05 | 2.4337e-05 | 2.4337e-05 |   0.0 |  0.15
Other   |            | 0.0005312  |            |       |  3.35

Nlocal:            144 ave         144 max         144 min
Histogram: 1 0 0 0 0 0 0 0 0 0
Nghost:           3614 ave        3614 max        3614 min
Histogram: 1 0 0 0 0 0 0 0 0 0
Neighs:          12670 ave       12670 max       12670 min
Histogram: 1 0 0 0 0 0 0 0 0 0

Total # of neighbors = 12670
Ave neighs/atom = 87.986111
Neighbor list builds = 1
Dangerous builds = 0
#---------------------------------------------------------------------------------------------------
# Anneal boundary structures
#---------------------------------------------------------------------------------------------------
reset_timestep 100000
fix md g_other nvt temp ${T_start} ${T_end} $(100.0*v_tstep)
fix md g_other nvt temp 600 ${T_end} $(100.0*v_tstep)
fix md g_other nvt temp 600 200 $(100.0*v_tstep)
fix md g_other nvt temp 600 200 0.2000000000000000111

velocity all create ${T_start} 4928459 rot yes mom yes dist gaussian
velocity all create 600 4928459 rot yes mom yes dist gaussian
run 10000
Per MPI rank memory allocation (min/avg/max) = 4.996 | 4.996 | 4.996 Mbytes
   Step        Atoms         Temp          PotEng         KinEng         TotEng          Fmax     
    100000         144   600           -470.0836       11.09052           -458.9930746838  1.1242515e-07
    101000         144   562.6403      -461.91544      10.399956          -451.5154812221  1.5730525    
    102000         144   586.38841     -461.86352      10.838921          -451.0245945848  1.5090138    
    103000         144   503.62552     -462.9165       9.3091153          -453.6073880914  1.4440719    
    104000         144   503.55916     -462.37818      9.3078885          -453.0702906361  1.4054363    
    105000         144   499.19752     -464.82616      9.2272671          -455.5988891640  1.1322811    
    106000         144   467.96761     -464.39619      8.6500072          -455.7461804870  1.3276511    
    107000         144   423.97795     -465.84247      7.8368935          -458.0055738972  1.0141677    
    108000         144   382.22266     -465.11609      7.0650805          -458.0510118818  1.0424391    
    109000         144   378.94755     -466.33815      7.0045426          -459.3336087920  1.0141517    
    110000         144   340.14377     -467.13596      6.2872857          -460.8486736333  0.84398603   
Loop time of 0.962481 on 1 procs for 10000 steps with 144 atoms

Performance: 1795.361 ns/day, 0.013 hours/ns, 10389.821 timesteps/s, 1.496 Matom-step/s
99.9% CPU use with 1 MPI tasks x no OpenMP threads

MPI task timing breakdown:
Section |  min time  |  avg time  |  max time  |%varavg| %total
---------------------------------------------------------------
Pair    | 0.85168    | 0.85168    | 0.85168    |   0.0 | 88.49
Neigh   | 0.026448   | 0.026448   | 0.026448   |   0.0 |  2.75
Comm    | 0.061117   | 0.061117   | 0.061117   |   0.0 |  6.35
Output  | 5.2416e-05 | 5.2416e-05 | 5.2416e-05 |   0.0 |  0.01
Modify  | 0.010589   | 0.010589   | 0.010589   |   0.0 |  1.10
Other   |            | 0.0126     |            |       |  1.31

Nlocal:            144 ave         144 max         144 min
Histogram: 1 0 0 0 0 0 0 0 0 0
Nghost:           3572 ave        3572 max        3572 min
Histogram: 1 0 0 0 0 0 0 0 0 0
Neighs:          12593 ave       12593 max       12593 min
Histogram: 1 0 0 0 0 0 0 0 0 0

Total # of neighbors = 12593
Ave neighs/atom = 87.451389
Neighbor list builds = 55
Dangerous builds = 0
unfix md

#---------------------------------------------------------------------------------------------------
# Final relaxation
#---------------------------------------------------------------------------------------------------
velocity all set 0.0 0.0 0.0

min_style 	cg
min_modify dmax 0.1
minimize 	0.0 1.0e-6 10000 100000
Per MPI rank memory allocation (min/avg/max) = 6.121 | 6.121 | 6.121 Mbytes
   Step        Atoms         Temp          PotEng         KinEng         TotEng          Fmax     
    110000         144   0             -467.13596      0                  -467.1359593618  0.84398603   
    110073         144   0             -470.07407      0                  -470.0740677891  2.0383073e-07
Loop time of 0.0150696 on 1 procs for 73 steps with 144 atoms

98.6% CPU use with 1 MPI tasks x no OpenMP threads

Minimization stats:
  Stopping criterion = force tolerance
  Energy initial, next-to-last, final = 
     -467.135959361808  -470.074067789061  -470.074067789062
  Force two-norm initial, final = 5.3511054 9.7912992e-07
  Force max component initial, final = 0.84398603 2.0383073e-07
  Final line search alpha, max atom move = 1 2.0383073e-07
  Iterations, force evaluations = 73 145

MPI task timing breakdown:
Section |  min time  |  avg time  |  max time  |%varavg| %total
---------------------------------------------------------------
Pair    | 0.013537   | 0.013537   | 0.013537   |   0.0 | 89.83
Neigh   | 0          | 0          | 0          |   0.0 |  0.00
Comm    | 0.000863   | 0.000863   | 0.000863   |   0.0 |  5.73
Output  | 0          | 0          | 0          |   0.0 |  0.00
Modify  | 2.2325e-05 | 2.2325e-05 | 2.2325e-05 |   0.0 |  0.15
Other   |            | 0.000647   |            |       |  4.29

Nlocal:            144 ave         144 max         144 min
Histogram: 1 0 0 0 0 0 0 0 0 0
Nghost:           3568 ave        3568 max        3568 min
Histogram: 1 0 0 0 0 0 0 0 0 0
Neighs:          12589 ave       12589 max       12589 min
Histogram: 1 0 0 0 0 0 0 0 0 0

Total # of neighbors = 12589
Ave neighs/atom = 87.423611
Neighbor list builds = 0
Dangerous builds = 0

Total wall time: 0:00:01
