ITEM: TIMESTEP
110054
ITEM: NUMBER OF ATOMS
144
ITEM: BOX BOUNDS xy xz yz pp pp pp
0.0000000000000000e+00 2.4801083645679689e+01 4.9602167291359365e+00
0.0000000000000000e+00 5.1574925321080187e+01 9.9204334582718801e+00
0.0000000000000000e+00 2.2734580741297954e+01 4.0483543531600581e+01
ITEM: ATOMS id type x y z c_peatom
69 2 4.96022 2.96547e-16 0 -3.34311
70 2 0 0 0 -3.34311
81 2 6.61362 3.69713 0 -3.36833
82 2 11.5738 3.69713 0 -3.35449
80 2 4.13351 4.80627 0.905608 -3.35682
86 1 4.18733 6.97292 2.75936 -3.33976
88 1 6.68239 8.03941 3.65422 -3.3498
91 2 9.09373 4.80627 0.905608 -3.36869
92 1 9.1375 6.97663 2.70416 -3.36903
93 1 6.61972 5.8773 1.80127 -3.36309
94 2 5.78692 8.50339 0.905608 -3.36021
95 2 8.26703 7.39425 0 -3.35449
76 1 11.6126 5.86546 1.86461 -3.36657
89 1 11.6341 8.00823 3.74913 -3.31973
96 2 13.2272 7.39425 0 -3.36833
104 2 10.7471 8.50339 0.905608 -3.3594
68 2 7.44033 12.2005 0.905608 -3.34541
100 1 5.87747 10.6584 2.81015 -3.35492
102 1 8.41238 11.6796 3.79739 -3.33585
106 1 8.309 9.5923 1.87369 -3.35088
79 1 9.95234 13.2276 1.85816 -3.3445
90 1 13.2592 9.58999 1.86031 -3.3698
77 2 12.4005 12.2005 0.905608 -3.334
103 1 13.3884 11.758 3.76614 -3.3502
105 1 10.8351 10.6439 2.82516 -3.35332
67 1 14.9306 13.1908 1.80274 -3.30857
72 1 7.5501 14.283 2.77934 -3.34641
74 1 10.0345 15.3847 3.66596 -3.35424
78 1 12.4675 14.2553 2.69174 -3.31196
84 1 12.5004 16.3569 4.33342 -3.2553
75 1 15.0085 15.226 3.52008 -3.27411
87 1 4.22072 9.14809 4.62707 -3.25484
98 1 9.20836 9.02527 4.73779 -3.37137
101 1 6.04817 12.7521 4.75469 -3.34145
109 1 8.67703 13.8392 5.66364 -3.28843
1 1 13.6696 13.9469 5.67443 -3.31384
108 1 11.0123 12.8103 4.70995 -3.31989
73 1 7.63614 16.4367 4.59581 -3.25947
3 1 6.44002 14.9069 6.64795 -3.2231
6 1 7.07198 17.01 8.63375 -3.21535
85 1 9.98972 17.6477 5.54294 -3.22023
2 1 9.18608 15.8908 7.66148 -3.1337
9 1 14.2465 16.0438 7.66708 -3.24239
97 1 11.3869 15.0631 6.53249 -3.23657
4 1 12.0312 17.0324 8.6307 -3.20882
14 1 12.6256 18.1787 6.17123 -3.16122
5 1 15.6681 18.8255 6.90153 -3.16854
71 1 14.9975 17.1526 5.18458 -3.12874
35 1 9.22489 22.2761 6.62357 -3.30947
15 1 8.39584 19.5094 7.48076 -3.22503
99 1 11.7109 21.1227 5.72634 -3.3138
16 1 10.744 20.6817 8.58625 -3.28657
20 1 13.2946 19.8938 7.87653 -3.16612
21 1 14.2076 22.2935 6.62865 -3.35171
44 1 11.6963 23.3001 7.60893 -3.33545
83 1 16.6666 21.2361 5.66718 -3.31735
17 1 15.8097 20.8132 8.64083 -3.30984
22 1 16.6711 23.3849 7.54388 -3.32888
36 1 9.1946 24.3849 8.55157 -3.31203
41 1 14.1338 24.3529 8.56102 -3.31664
7 1 4.83332 18.1075 9.56457 -3.35187
13 1 9.75936 18.0594 9.54337 -3.26035
8 2 7.44033 19.1326 10.4617 -3.36024
26 2 4.96022 20.2418 11.3673 -3.38278
34 1 8.30094 21.7654 9.48466 -3.35412
10 2 12.4005 19.1326 10.4617 -3.35707
11 2 9.92043 20.2418 11.3673 -3.38278
18 1 13.2405 21.8536 9.59525 -3.31231
31 2 10.7471 22.8298 10.4617 -3.35792
19 2 15.7074 22.8298 10.4617 -3.33863
32 2 8.26703 23.9389 11.3673 -3.36837
52 1 8.22794 26.1266 13.2471 -3.3404
53 2 9.09373 26.5269 10.4617 -3.34355
33 2 10.7471 25.048 12.2729 -3.34355
38 1 13.2109 26.1186 13.2812 -3.32996
40 2 13.2272 23.9389 11.3673 -3.34951
42 1 11.6129 25.4483 9.48752 -3.3404
43 2 14.0539 26.5269 10.4617 -3.36172
60 2 11.5738 27.636 11.3673 -3.36837
37 2 15.7074 25.048 12.2729 -3.36172
45 2 16.5341 27.636 11.3673 -3.34951
46 1 16.5504 25.4563 9.45339 -3.32996
54 2 9.09373 28.7452 12.2729 -3.35792
23 2 12.4005 32.4423 12.2729 -3.36024
57 2 14.0539 28.7452 12.2729 -3.33863
58 1 11.5399 29.8096 13.2499 -3.35412
12 2 17.3608 32.4423 12.2729 -3.35707
62 1 16.5208 29.7214 13.1393 -3.31231
30 1 15.0075 33.4675 13.17 -3.35187
24 1 20.0019 33.5155 13.1912 -3.26035
49 1 10.6463 27.19 14.183 -3.31203
39 1 15.6275 27.222 14.1736 -3.31664
50 1 8.14459 28.2748 15.1256 -3.33545
63 1 9.09689 30.8932 14.1483 -3.28657
127 1 8.13001 30.4522 17.0082 -3.3138
56 1 13.0902 28.19 15.1907 -3.32888
51 1 10.616 29.2988 16.111 -3.30947
59 1 13.9516 30.7617 14.0938 -3.30984
66 1 11.445 32.0655 15.2538 -3.22503
55 1 15.5537 29.2814 16.1059 -3.35171
61 1 16.4667 31.6811 14.8581 -3.16612
107 1 9.85115 33.9272 17.1916 -3.22023
65 1 14.0932 32.7495 15.833 -3.16854
25 1 12.7689 34.565 14.1008 -3.21535
47 1 13.4008 36.6681 16.0866 -3.2231
48 1 10.6548 35.6841 15.0731 -3.1337
111 1 12.2047 35.1382 18.1388 -3.25947
117 1 14.7638 34.4223 17.55 -3.12874
64 1 17.1357 33.3963 16.5633 -3.16122
28 1 15.5148 35.5312 15.0675 -3.24239
27 1 17.7301 34.5425 14.1039 -3.20882
29 1 18.3744 36.5118 16.2021 -3.23657
123 1 13.7927 38.8228 17.9799 -3.34145
115 1 11.1638 37.7358 17.0709 -3.28843
140 1 18.055 41.4302 17.0674 -3.31735
129 1 16.0917 37.628 17.0601 -3.31384
128 1 18.749 38.7647 18.0246 -3.31989
135 1 15.6202 42.4268 18.1075 -3.25484
114 1 9.80641 36.1903 19.0686 -3.35424
112 1 12.2908 37.2919 19.9552 -3.34641
113 1 14.7528 36.3489 19.2145 -3.27411
116 1 17.2609 35.218 18.4012 -3.2553
120 1 17.2938 37.3196 20.0428 -3.31196
110 1 9.88853 38.3473 20.8764 -3.3445
118 2 12.4005 39.3744 21.829 -3.34541
119 1 11.5319 41.9826 20.8609 -3.35088
124 1 13.9634 40.9165 19.9244 -3.35492
126 1 11.4285 39.8953 18.9372 -3.33585
122 1 14.8307 38.3842 20.9318 -3.30856
121 2 17.3608 39.3744 21.829 -3.334
125 1 16.3729 39.8169 18.9684 -3.3502
132 1 18.9262 40.931 19.9094 -3.35332
130 2 14.0539 43.0715 21.829 -3.36021
131 1 13.2212 45.6976 20.9333 -3.36309
138 1 13.1585 43.5355 19.0804 -3.3498
134 1 16.5021 41.9849 20.8743 -3.3698
133 2 19.0142 43.0715 21.829 -3.3594
136 1 15.6535 44.602 19.9752 -3.33976
137 1 18.1272 43.5667 18.9854 -3.31973
141 2 15.7074 46.7687 21.829 -3.35682
144 1 18.1487 45.7095 20.87 -3.36657
139 1 20.5529 42.5497 17.9968 -3.37137
142 1 20.6238 44.5983 20.0304 -3.36903
143 2 20.6676 46.7687 21.829 -3.36869
