ITEM: TIMESTEP
100000
ITEM: NUMBER OF ATOMS
144
ITEM: BOX BOUNDS xy xz yz pp pp pp
0.0000000000000000e+00 2.2320975281111718e+01 4.9602167291359365e+00
0.0000000000000000e+00 4.0483543531600581e+01 7.4403250937039100e+00
0.0000000000000000e+00 2.0734580741297954e+01 2.9392161742120972e+01
ITEM: ATOMS id type x y z c_peatom
70 2 0 0 0 -3.35374
72 1 2.35016 3.5516 2.50066 -3.26085
69 2 4.96022 0 0 -3.35374
81 2 6.61362 3.69713 0 -3.30516
78 1 7.31037 3.5516 2.50066 -3.26085
82 2 11.5738 3.69713 0 -3.30516
80 2 4.13351 4.80627 0.905608 -3.34109
86 1 4.09897 7.22018 2.58868 -3.28486
88 1 6.65372 8.47219 3.49485 -3.3156
93 1 6.57986 6.03242 1.68796 -3.29777
94 2 5.78692 8.50339 0.905608 -3.31948
95 2 8.26703 7.39425 0 -3.30516
76 1 11.5401 6.03242 1.68796 -3.29777
89 1 11.6139 8.47219 3.49485 -3.3156
91 2 9.09373 4.80627 0.905608 -3.34109
92 1 9.05919 7.22018 2.58868 -3.28486
96 2 13.2272 7.39425 0 -3.30516
104 2 10.7471 8.50339 0.905608 -3.31948
87 1 4.24174 9.79062 4.31185 -3.22221
68 2 7.44033 12.2005 0.905608 -3.31832
100 1 5.81012 10.9498 2.58064 -3.29145
101 1 5.77603 13.397 4.23219 -3.21989
102 1 8.30129 12.092 3.35733 -3.24009
106 1 8.27168 9.70591 1.69214 -3.31009
77 2 12.4005 12.2005 0.905608 -3.31832
79 1 9.87141 13.4493 1.69048 -3.32372
90 1 13.2319 9.70591 1.69214 -3.31009
98 1 9.20195 9.79062 4.31185 -3.22221
103 1 13.2615 12.092 3.35733 -3.24009
105 1 10.7703 10.9498 2.58064 -3.29145
108 1 10.7362 13.397 4.23219 -3.21989
67 1 14.8316 13.4493 1.69048 -3.32372
73 1 6.8924 17.0082 4.29279 -3.15808
109 1 8.24176 14.2996 4.90872 -2.99848
74 1 9.63301 15.9272 3.57215 -3.20214
84 1 11.8526 17.0082 4.29279 -3.15808
97 1 13.202 14.2996 4.90872 -2.99848
75 1 14.5932 15.9272 3.57215 -3.20214
85 1 4.03498 7.45748 5.19091 -3.19187
1 1 6.36405 8.66883 6.06676 -3.24364
2 1 11.3243 8.66883 6.06676 -3.24364
71 1 8.99519 7.45748 5.19091 -3.19187
7 1 3.7003 12.366 8.66147 -3.31868
9 1 3.79477 9.89685 6.91384 -3.24401
5 1 4.33296 12.2414 6.07019 -3.23276
3 1 8.75499 9.89685 6.91384 -3.24401
6 1 6.21584 11.1585 7.78319 -3.2911
13 1 8.66052 12.366 8.66147 -3.31868
99 1 6.77973 11.1008 5.20475 -3.28771
4 1 11.1761 11.1585 7.78319 -3.2911
14 1 9.29318 12.2414 6.07019 -3.23276
83 1 11.7399 11.1008 5.20475 -3.28771
8 2 6.20027 13.5869 9.46168 -3.27797
15 1 6.85275 13.6739 6.89388 -3.26164
34 1 7.02168 16.0619 8.76363 -3.26587
35 1 8.05675 16.3834 6.4061 -2.97775
17 1 4.52368 14.7779 7.69432 -3.26331
10 2 11.1605 13.5869 9.46168 -3.27797
16 1 9.48389 14.7779 7.69432 -3.26331
18 1 11.9819 16.0619 8.76363 -3.26587
20 1 11.813 13.6739 6.89388 -3.26164
21 1 13.017 16.3834 6.4061 -2.97775
31 2 9.50708 17.2841 9.46168 -3.34951
44 1 10.5167 17.3094 6.92286 -3.24025
19 2 14.4673 17.2841 9.46168 -3.34951
22 1 15.4769 17.3094 6.92286 -3.24025
36 1 7.92138 18.6344 7.86133 -3.26821
53 2 7.85368 20.9812 9.46168 -3.31885
41 1 12.8816 18.6344 7.86133 -3.26821
42 1 10.371 19.7473 8.66528 -3.33448
43 2 12.8139 20.9812 9.46168 -3.31885
46 1 15.3312 19.7473 8.66528 -3.33448
32 2 7.02697 18.3932 10.3673 -3.33606
52 1 6.98974 20.7362 12.0693 -3.33448
33 2 9.50708 19.5023 11.2729 -3.31885
38 1 11.95 20.7362 12.0693 -3.33448
40 2 11.9872 18.3932 10.3673 -3.33606
49 1 9.43937 21.8492 12.8732 -3.26821
60 2 10.3338 22.0903 10.3673 -3.33606
37 2 14.4673 19.5023 11.2729 -3.31885
39 1 14.3996 21.8492 12.8732 -3.26821
45 2 15.294 22.0903 10.3673 -3.33606
26 2 8.68038 25.7875 10.3673 -3.35275
50 1 6.84403 23.1742 13.8117 -3.24025
54 2 7.85368 23.1995 11.2729 -3.34951
23 2 11.1605 26.8966 11.2729 -3.27797
51 1 9.30401 24.1002 14.3285 -2.97775
56 1 11.8042 23.1742 13.8117 -3.24025
57 2 12.8139 23.1995 11.2729 -3.34951
58 1 10.3391 24.4217 11.971 -3.26587
59 1 12.8371 25.7057 13.0403 -3.26331
66 1 10.508 26.8096 13.8407 -3.26164
63 1 17.7973 25.7057 13.0403 -3.26331
11 2 13.6406 25.7875 10.3673 -3.35275
12 2 16.1207 26.8966 11.2729 -3.27797
55 1 14.2642 24.1002 14.3285 -2.97775
61 1 15.4682 26.8096 13.8407 -3.26164
62 1 15.2993 24.4217 11.971 -3.26587
25 1 11.1449 29.3251 12.9514 -3.2911
65 1 13.0278 28.2422 14.6644 -3.23276
127 1 10.581 29.3827 15.5298 -3.28771
27 1 16.1051 29.3251 12.9514 -3.2911
28 1 13.566 30.5867 13.8207 -3.24401
30 1 13.6605 28.1176 12.0731 -3.31868
140 1 15.5412 29.3827 15.5298 -3.28771
64 1 17.988 28.2422 14.6644 -3.23276
24 1 18.6207 28.1176 12.0731 -3.31868
48 1 18.5262 30.5867 13.8207 -3.24401
47 1 10.9967 31.8147 14.6678 -3.24364
107 1 13.3258 33.0261 15.5437 -3.19187
29 1 15.9569 31.8147 14.6678 -3.24364
117 1 18.286 33.0261 15.5437 -3.19187
114 1 7.72775 24.5563 17.1624 -3.20214
111 1 10.4684 23.4753 16.4418 -3.15808
113 1 12.688 24.5563 17.1624 -3.20214
115 1 9.119 26.184 15.8259 -2.99848
116 1 15.4286 23.4753 16.4418 -3.15808
129 1 14.0792 26.184 15.8259 -2.99848
110 1 7.48934 27.0343 19.0441 -3.32372
118 2 9.92043 28.283 19.829 -3.31832
119 1 9.08908 30.7776 19.0424 -3.31009
122 1 12.4496 27.0343 19.0441 -3.32372
123 1 11.5847 27.0866 16.5024 -3.21989
124 1 11.5506 29.5337 18.1539 -3.29145
126 1 9.05947 28.3916 17.3773 -3.24009
135 1 13.119 30.6929 16.4227 -3.22221
121 2 14.8807 28.283 19.829 -3.31832
125 1 14.0197 28.3916 17.3773 -3.24009
128 1 16.5449 27.0866 16.5024 -3.21989
132 1 16.5109 29.5337 18.1539 -3.29145
134 1 14.0493 30.7776 19.0424 -3.31009
139 1 18.0792 30.6929 16.4227 -3.22221
130 2 11.5738 31.9802 19.829 -3.31948
131 1 10.7809 34.4511 19.0466 -3.29777
136 1 13.2618 33.2634 18.1459 -3.28486
138 1 10.707 32.0114 17.2397 -3.3156
141 2 13.2272 35.6773 19.829 -3.34109
133 2 16.5341 31.9802 19.829 -3.31948
137 1 15.6673 32.0114 17.2397 -3.3156
144 1 15.7411 34.4511 19.0466 -3.29777
142 1 18.222 33.2634 18.1459 -3.28486
143 2 18.1875 35.6773 19.829 -3.34109
112 1 15.0106 36.9319 18.2339 -3.26085
120 1 19.9708 36.9319 18.2339 -3.26085
