ITEM: TIMESTEP
110081
ITEM: NUMBER OF ATOMS
144
ITEM: BOX BOUNDS xy xz yz pp pp pp
0.0000000000000000e+00 2.5421110736821674e+01 4.9602167291359365e+00
0.0000000000000000e+00 4.1869966255285533e+01 1.0540460549413869e+01
0.0000000000000000e+00 2.4734580741297954e+01 3.0778584465805924e+01
ITEM: ATOMS id type x y z c_peatom
69 2 4.96022 0 0 -3.35776
70 2 0 0 0 -3.37198
81 2 6.61362 3.69713 0 -3.37995
67 1 9.92306 2.25939 1.81668 -3.28928
82 2 11.5738 3.69713 0 -3.38034
80 2 4.13351 4.80627 0.905608 -3.37362
86 1 4.05912 7.11397 2.80495 -3.15015
88 1 6.43821 8.24871 3.79869 -3.23591
91 2 9.09373 4.80627 0.905608 -3.28735
92 1 8.99388 7.06827 2.90538 -3.08653
93 1 6.59588 5.9779 1.843 -3.28553
94 2 5.78692 8.50339 0.905608 -3.36845
95 2 8.26703 7.39425 0 -3.38158
76 1 11.5448 5.96216 1.84326 -3.15371
96 2 13.2272 7.39425 0 -3.37645
104 2 10.7471 8.50339 0.905608 -3.38072
73 1 11.3898 8.35951 3.83335 -3.04207
89 1 3.93983 9.46224 4.74247 -3.19242
79 1 9.94883 13.4025 1.8818 -3.39516
68 2 7.44033 12.2005 0.905608 -3.37321
100 1 5.74907 10.7888 2.81349 -3.37978
102 1 8.19664 12.0101 3.71655 -3.37794
106 1 8.2391 9.6217 1.90538 -3.36959
98 1 8.81434 9.53152 4.7487 -3.32499
101 1 5.69515 13.2473 4.56138 -3.03331
77 2 12.4005 12.2005 0.905608 -3.38492
90 1 13.1901 9.65669 1.87699 -3.38008
103 1 13.1794 11.945 3.66709 -3.30737
105 1 10.6702 10.8234 2.78865 -3.3691
108 1 10.7439 13.1414 4.62254 -3.30399
78 1 10.0629 15.7641 3.82191 -3.13903
72 1 7.50405 14.5257 2.74674 -3.16513
75 1 12.4382 14.546 2.82041 -3.19335
1 1 8.81979 11.9017 6.55438 -3.31075
5 1 6.27785 13.3322 7.46983 -3.18674
99 1 6.29901 10.7719 5.67731 -3.36215
6 1 7.78883 12.0126 9.496 -3.35315
9 1 5.30132 10.8648 8.55544 -3.36068
44 1 7.75259 9.55924 7.69721 -3.35662
2 1 13.6437 12.2445 6.51483 -3.27742
14 1 11.0686 13.4595 7.47426 -3.3313
83 1 11.3537 10.7472 5.63373 -3.27917
4 1 12.704 12.0043 9.51112 -3.33635
74 1 8.36877 14.3494 5.57389 -2.9694
15 1 8.65961 14.5926 8.51043 -3.18159
17 1 6.14736 15.6254 9.57051 -3.23177
85 1 10.3175 16.4194 6.82133 -3.01674
84 1 12.6726 18.1884 5.93178 -3.10878
16 1 11.1114 15.6552 9.52592 -3.30031
20 1 13.5816 14.4631 8.52322 -3.24795
97 1 12.5693 15.1689 5.7281 -2.99773
109 1 14.3482 17.025 7.79794 -3.00247
21 1 11.8936 18.1624 8.70893 -3.31606
35 1 16.8862 18.2398 8.70064 -3.08387
36 1 9.44026 19.4058 9.603 -3.3051
87 1 10.2496 19.4018 6.83845 -3.10725
71 1 15.1855 19.6049 6.85913 -3.13678
3 1 15.2344 21.9327 8.62015 -3.34592
41 1 14.3826 19.3706 9.59881 -3.41767
22 1 17.7481 20.8005 7.71406 -3.24617
13 1 10.2256 13.1466 10.4743 -3.35247
7 1 5.28091 13.1096 10.4613 -3.35722
8 2 7.75034 14.2802 11.4617 -3.36427
34 1 8.6212 16.8112 10.4929 -3.30046
26 2 5.27023 15.3893 12.3673 -3.36158
10 2 12.7106 14.2802 11.4617 -3.35825
18 1 13.5691 16.7903 10.502 -3.3595
31 2 11.0571 17.9773 11.4617 -3.3463
11 2 10.2304 15.3893 12.3673 -3.3675
19 2 16.0174 17.9773 11.4617 -3.38668
32 2 8.57704 19.0864 12.3673 -3.36471
52 1 8.54946 21.3613 14.2248 -3.41403
53 2 9.40374 21.6744 11.4617 -3.3555
33 2 11.0571 20.1956 13.2729 -3.36558
38 1 13.4991 21.3303 14.2152 -3.30864
40 2 13.5373 19.0864 12.3673 -3.36067
42 1 11.9077 20.5462 10.4713 -3.37035
43 2 14.364 21.6744 11.4617 -3.36104
60 2 11.8839 22.7835 12.3673 -3.34922
37 2 16.0174 20.1956 13.2729 -3.38073
45 2 16.8441 22.7835 12.3673 -3.38751
46 1 16.8597 20.5296 10.4998 -3.38239
54 2 9.40374 23.8927 13.2729 -3.35885
23 2 12.7106 27.5898 13.2729 -3.35166
57 2 14.364 23.8927 13.2729 -3.29818
58 1 11.8521 25.0674 14.2502 -3.30135
12 2 17.6708 27.5898 13.2729 -3.35306
62 1 16.8032 25.0921 14.2302 -3.23486
30 1 15.1611 28.7229 14.3041 -3.35744
24 1 20.1505 28.7274 14.2929 -3.33743
50 1 7.75636 21.1313 16.97 -3.14925
135 1 10.2477 22.5704 17.9072 -3.14993
28 1 10.2204 20.0737 16.0881 -3.3547
49 1 11.0248 22.5672 15.112 -3.31337
56 1 12.6747 21.3267 16.9513 -3.08628
48 1 15.1223 19.9161 16.0841 -3.26693
39 1 15.9662 22.4787 15.1302 -3.08509
107 1 10.3513 25.5538 18.1442 -3.14511
51 1 12.5954 24.3391 16.9362 -2.997
59 1 14.2895 26.1469 15.2714 -3.19536
66 1 11.8619 27.2531 16.3111 -3.32056
115 1 12.2747 27.4943 19.1765 -3.3051
117 1 14.6715 26.2923 18.2332 -2.98971
55 1 18.4839 23.7259 16.0523 -3.03308
63 1 19.2962 26.2401 15.2608 -3.23695
61 1 16.7038 27.3559 16.3149 -3.19723
129 1 17.2422 27.5171 19.1878 -3.17692
25 1 12.6662 29.8793 15.1894 -3.34796
47 1 11.669 29.8931 18.1203 -3.31422
65 1 14.1673 28.738 17.2033 -3.3201
127 1 14.2085 31.1664 19.0288 -3.33483
27 1 17.6381 29.8506 15.2269 -3.36804
29 1 16.6394 29.953 18.0781 -3.35257
64 1 19.2223 28.4531 17.2709 -3.29871
140 1 19.062 31.1024 18.928 -3.09582
112 1 13.0525 27.3271 21.9418 -3.38722
113 1 15.5079 26.1693 21.0417 -3.2481
120 1 18.0107 27.3401 21.9462 -3.38357
123 1 14.7742 28.6777 20.053 -3.36408
118 2 13.0206 29.6694 23.829 -3.34831
119 1 12.2512 32.2059 22.8091 -3.34497
124 1 14.7579 31.0569 21.8922 -3.36074
126 1 12.3152 29.8624 20.9829 -3.37294
110 1 10.5531 28.5311 22.8615 -3.36964
128 1 19.7378 28.6942 20.1013 -3.32631
121 2 17.9808 29.6694 23.829 -3.36306
125 1 17.2379 29.8965 20.952 -3.35102
132 1 19.7025 31.0979 21.8636 -3.25331
134 1 17.198 32.2072 22.8471 -3.26726
122 1 15.5255 28.5068 22.8505 -3.3568
139 1 21.5628 32.3009 19.8416 -2.94381
130 2 14.674 33.3666 23.829 -3.36791
131 1 13.847 35.8893 22.8806 -3.37919
138 1 14.0011 33.5622 20.8789 -3.24262
137 1 16.6158 32.4908 19.9847 -3.09936
114 1 15.552 37.2735 21.0357 -3.30953
111 1 17.8419 35.9684 19.99 -2.98068
133 2 19.6342 33.3666 23.829 -3.2764
136 1 16.3097 34.7437 21.9924 -3.20231
141 2 16.3274 37.0637 23.829 -3.38895
144 1 18.8011 35.8976 22.8808 -3.27667
116 1 23.0814 36.1285 20.0928 -2.99038
142 1 21.3319 34.7352 21.9582 -3.12393
143 2 21.2876 37.0637 23.829 -3.39879
