LAMMPS (29 Aug 2024 - Update 2)
#---------------------------------------------------------------------------------------------------
# Initilise important features of simulation
#---------------------------------------------------------------------------------------------------
units 		metal	# Use metals units (Ang, ps, eV, bar, etc.)
dimension 	3		# Run the simulation in three dimensions
boundary 	p p p	# Use periodic boundaries in all three dimensions
atom_style 	atomic	#
#box tilt large		# Allow larger than normal tilt factors

variable T_start equal 600
variable T_end equal 200
variable tstep equal 0.002
timestep ${tstep}
timestep 0.002

read_data   lammps.txt	# Read in atom coordinates from a file
Reading data file ...
  triclinic box = (0 0 0) to (9.9204335 11.091382 23.734581) with tilt (4.9602167 19.22084 36.324275)
WARNING: Triclinic box skew is large. LAMMPS will run inefficiently. (src/domain.cpp:221)
  1 by 1 by 1 MPI processor grid
  reading atoms ...
  144 atoms
  read_data CPU = 0.001 seconds

#---------------------------------------------------------------------------------------------------
# Define how the forces between the atoms will be modelled
#---------------------------------------------------------------------------------------------------
pair_style eam/alloy
pair_coeff * * Zope-Ti-Al-2003.eam.alloy.txt Al Al

#---------------------------------------------------------------------------------------------------
# Set behaviour of simulation
#---------------------------------------------------------------------------------------------------
group g_fixed type 2
36 atoms in group g_fixed
group g_other type 1
108 atoms in group g_other
fix f_freeze g_fixed setforce 0.0 0.0 0.0 	# Hold atoms of type 2 fixed in place
#fix f_constrain g_other setforce 0.0 0.0 NULL 	# All atoms of type 1 to move only in z direction

#---------------------------------------------------------------------------------------------------
# Specify what information to write out
#---------------------------------------------------------------------------------------------------
thermo_style custom step atoms temp pe ke etotal fmax
thermo_modify format 6 %20.10f
thermo 1000

#compute statom all stress/atom NULL
compute peatom all pe/atom
dump 1 all custom 100000 dump.* id type x y z c_peatom
dump_modify 1 first yes


#---------------------------------------------------------------------------------------------------
# Initial relaxation
#---------------------------------------------------------------------------------------------------
velocity all set 0.0 0.0 0.0

min_style 	cg
min_modify dmax 0.1
minimize 	0.0 1.0e-6 10000 100000
Neighbor list info ...
  update: every = 1 steps, delay = 0 steps, check = yes
  max neighbors/atom: 2000, page size: 100000
  master list distance cutoff = 8.724884
  ghost atom cutoff = 8.724884
  binsize = 4.362442, bins = 8 11 6
  1 neighbor lists, perpetual/occasional/extra = 1 0 0
  (1) pair eam/alloy, perpetual
      attributes: half, newton on
      pair build: half/bin/atomonly/newton/tri
      stencil: half/bin/3d/tri
      bin: standard
Per MPI rank memory allocation (min/avg/max) = 4.663 | 4.663 | 4.663 Mbytes
   Step        Atoms         Temp          PotEng         KinEng         TotEng          Fmax     
         0         144   0             -465.72383      0                  -465.7238332942  1.7712589    
        73         144   0             -473.9864       0                  -473.9863980330  1.1724308e-07
Loop time of 0.0123284 on 1 procs for 73 steps with 144 atoms

99.4% CPU use with 1 MPI tasks x no OpenMP threads

Minimization stats:
  Stopping criterion = force tolerance
  Energy initial, next-to-last, final = 
     -465.723833294162  -473.986398032982  -473.986398032978
  Force two-norm initial, final = 8.9847856 8.6330319e-07
  Force max component initial, final = 1.7712589 1.1724308e-07
  Final line search alpha, max atom move = 1 1.1724308e-07
  Iterations, force evaluations = 73 138

MPI task timing breakdown:
Section |  min time  |  avg time  |  max time  |%varavg| %total
---------------------------------------------------------------
Pair    | 0.01072    | 0.01072    | 0.01072    |   0.0 | 86.96
Neigh   | 0.00048267 | 0.00048267 | 0.00048267 |   0.0 |  3.92
Comm    | 0.00063412 | 0.00063412 | 0.00063412 |   0.0 |  5.14
Output  | 0          | 0          | 0          |   0.0 |  0.00
Modify  | 2.1209e-05 | 2.1209e-05 | 2.1209e-05 |   0.0 |  0.17
Other   |            | 0.0004701  |            |       |  3.81

Nlocal:            144 ave         144 max         144 min
Histogram: 1 0 0 0 0 0 0 0 0 0
Nghost:           2652 ave        2652 max        2652 min
Histogram: 1 0 0 0 0 0 0 0 0 0
Neighs:          11166 ave       11166 max       11166 min
Histogram: 1 0 0 0 0 0 0 0 0 0

Total # of neighbors = 11166
Ave neighs/atom = 77.541667
Neighbor list builds = 1
Dangerous builds = 0
#---------------------------------------------------------------------------------------------------
# Anneal boundary structures
#---------------------------------------------------------------------------------------------------
reset_timestep 100000
fix md g_other nvt temp ${T_start} ${T_end} $(100.0*v_tstep)
fix md g_other nvt temp 600 ${T_end} $(100.0*v_tstep)
fix md g_other nvt temp 600 200 $(100.0*v_tstep)
fix md g_other nvt temp 600 200 0.2000000000000000111

velocity all create ${T_start} 4928459 rot yes mom yes dist gaussian
velocity all create 600 4928459 rot yes mom yes dist gaussian
run 10000
Per MPI rank memory allocation (min/avg/max) = 4.919 | 4.919 | 4.919 Mbytes
   Step        Atoms         Temp          PotEng         KinEng         TotEng          Fmax     
    100000         144   600           -473.9864       11.09052           -462.8958775920  1.1724311e-07
    101000         144   570.47987     -467.3212       10.544864          -456.7763339397  1.3676094    
    102000         144   561.25542     -467.06598      10.374358          -456.6916232844  1.1720117    
    103000         144   520.69371     -468.16298      9.624607           -458.5383712697  1.1062396    
    104000         144   490.52198     -467.90831      9.0669067          -458.8413989095  1.1013611    
    105000         144   495.78471     -468.97386      9.1641842          -459.8096761186  1.0536272    
    106000         144   437.50561     -469.97054      8.0869414          -461.8835947302  1.0303166    
    107000         144   411.48913     -470.82723      7.6060477          -463.2211816145  1.0028296    
    108000         144   388.20654     -471.01572      7.1756877          -463.8400288902  0.9201258    
    109000         144   378.13789     -472.50799      6.9895766          -465.5184103660  0.88225652   
    110000         144   327.05528     -472.93629      6.0453554          -466.8909385287  0.79086053   
Loop time of 0.856626 on 1 procs for 10000 steps with 144 atoms

Performance: 2017.215 ns/day, 0.012 hours/ns, 11673.700 timesteps/s, 1.681 Matom-step/s
99.7% CPU use with 1 MPI tasks x no OpenMP threads

MPI task timing breakdown:
Section |  min time  |  avg time  |  max time  |%varavg| %total
---------------------------------------------------------------
Pair    | 0.73788    | 0.73788    | 0.73788    |   0.0 | 86.14
Neigh   | 0.049629   | 0.049629   | 0.049629   |   0.0 |  5.79
Comm    | 0.046891   | 0.046891   | 0.046891   |   0.0 |  5.47
Output  | 4.4292e-05 | 4.4292e-05 | 4.4292e-05 |   0.0 |  0.01
Modify  | 0.010635   | 0.010635   | 0.010635   |   0.0 |  1.24
Other   |            | 0.01154    |            |       |  1.35

Nlocal:            144 ave         144 max         144 min
Histogram: 1 0 0 0 0 0 0 0 0 0
Nghost:           2652 ave        2652 max        2652 min
Histogram: 1 0 0 0 0 0 0 0 0 0
Neighs:          11059 ave       11059 max       11059 min
Histogram: 1 0 0 0 0 0 0 0 0 0

Total # of neighbors = 11059
Ave neighs/atom = 76.798611
Neighbor list builds = 109
Dangerous builds = 0
unfix md

#---------------------------------------------------------------------------------------------------
# Final relaxation
#---------------------------------------------------------------------------------------------------
velocity all set 0.0 0.0 0.0

min_style 	cg
min_modify dmax 0.1
minimize 	0.0 1.0e-6 10000 100000
Per MPI rank memory allocation (min/avg/max) = 6.044 | 6.044 | 6.044 Mbytes
   Step        Atoms         Temp          PotEng         KinEng         TotEng          Fmax     
    110000         144   0             -472.93629      0                  -472.9362939374  0.79086053   
    110046         144   0             -475.66819      0                  -475.6681859394  1.7538372e-07
Loop time of 0.0079445 on 1 procs for 46 steps with 144 atoms

97.7% CPU use with 1 MPI tasks x no OpenMP threads

Minimization stats:
  Stopping criterion = force tolerance
  Energy initial, next-to-last, final = 
     -472.936293937381  -475.668185939427  -475.668185939428
  Force two-norm initial, final = 4.6821742 9.1644991e-07
  Force max component initial, final = 0.79086053 1.7538372e-07
  Final line search alpha, max atom move = 1 1.7538372e-07
  Iterations, force evaluations = 46 90

MPI task timing breakdown:
Section |  min time  |  avg time  |  max time  |%varavg| %total
---------------------------------------------------------------
Pair    | 0.0070666  | 0.0070666  | 0.0070666  |   0.0 | 88.95
Neigh   | 0          | 0          | 0          |   0.0 |  0.00
Comm    | 0.00040216 | 0.00040216 | 0.00040216 |   0.0 |  5.06
Output  | 0          | 0          | 0          |   0.0 |  0.00
Modify  | 1.4419e-05 | 1.4419e-05 | 1.4419e-05 |   0.0 |  0.18
Other   |            | 0.0004613  |            |       |  5.81

Nlocal:            144 ave         144 max         144 min
Histogram: 1 0 0 0 0 0 0 0 0 0
Nghost:           2664 ave        2664 max        2664 min
Histogram: 1 0 0 0 0 0 0 0 0 0
Neighs:          11075 ave       11075 max       11075 min
Histogram: 1 0 0 0 0 0 0 0 0 0

Total # of neighbors = 11075
Ave neighs/atom = 76.909722
Neighbor list builds = 0
Dangerous builds = 0

Total wall time: 0:00:00
