ITEM: TIMESTEP
0
ITEM: NUMBER OF ATOMS
144
ITEM: BOX BOUNDS xy xz yz pp pp pp
0.0000000000000000e+00 3.5341544195093547e+01 4.9602167291359365e+00
0.0000000000000000e+00 4.1869966255285533e+01 2.0460894007685738e+01
0.0000000000000000e+00 2.4734580741297954e+01 3.0778584465805920e+01
ITEM: ATOMS id type x y z c_peatom
70 2 0 0 0 -3.37561
82 2 1.65341 3.69713 0 -3.37561
69 2 4.96022 0 0 -3.37561
81 2 6.61362 3.69713 0 -3.37561
80 2 4.13351 4.80627 0.905608 -3.37634
86 1 4.13351 7.02454 2.71682 -3.33789
88 1 6.61362 8.13368 3.62243 -3.2221
93 1 6.61362 5.9154 1.81122 -3.39199
94 2 5.78692 8.50339 0.905608 -3.37634
95 2 8.26703 7.39425 0 -3.37561
76 1 11.5738 5.9154 1.81122 -3.39199
89 1 11.5738 8.13368 3.62243 -3.2221
91 2 9.09373 4.80627 0.905608 -3.37634
92 1 9.09373 7.02454 2.71682 -3.33789
96 2 13.2272 7.39425 0 -3.37561
98 1 9.09373 9.24282 4.52804 -3.02805
104 2 10.7471 8.50339 0.905608 -3.37634
87 1 14.0539 9.24282 4.52804 -3.02805
68 2 7.44033 12.2005 0.905608 -3.37634
100 1 5.78692 10.7217 2.71682 -3.33423
102 1 8.26703 11.8308 3.62243 -3.22187
106 1 8.26703 9.61253 1.81122 -3.3899
77 2 12.4005 12.2005 0.905608 -3.37634
79 1 9.92043 13.3097 1.81122 -3.39071
90 1 13.2272 9.61253 1.81122 -3.3899
103 1 13.2272 11.8308 3.62243 -3.22187
105 1 10.7471 10.7217 2.71682 -3.33423
108 1 10.7471 12.9399 4.52804 -3.02346
67 1 14.8807 13.3097 1.81122 -3.39071
101 1 15.7074 12.9399 4.52804 -3.02346
72 1 7.44033 14.4188 2.71682 -3.3387
74 1 9.92043 15.5279 3.62243 -3.24763
78 1 12.4005 14.4188 2.71682 -3.3387
84 1 12.4005 16.6371 4.52804 -3.03687
73 1 17.3608 16.6371 4.52804 -3.03687
75 1 14.8807 15.5279 3.62243 -3.24763
2 1 7.75034 9.8436 7.83925 -2.54596
99 1 6.61362 10.352 6.18365 -2.38572
1 1 12.7106 9.8436 7.83925 -2.54596
5 1 11.0571 13.5407 7.83925 -3.00318
6 1 12.7106 12.0619 9.65047 -3.36707
9 1 10.2304 10.9527 8.74486 -3.2157
83 1 11.5738 10.352 6.18365 -2.38572
3 1 15.1907 10.9527 8.74486 -3.2157
4 1 17.6708 12.0619 9.65047 -3.36707
14 1 16.0174 13.5407 7.83925 -3.00318
109 1 8.26703 14.0491 6.18365 -2.7565
17 1 11.0571 15.759 9.65047 -3.35033
22 1 11.8839 18.347 8.74486 -3.20864
85 1 9.92043 17.7462 6.18365 -1.97494
97 1 13.2272 14.0491 6.18365 -2.7565
15 1 13.5373 14.6499 8.74486 -3.14114
16 1 16.0174 15.759 9.65047 -3.35033
35 1 14.364 17.2379 7.83925 -2.12966
44 1 16.8441 18.347 8.74486 -3.20864
71 1 14.8807 17.7462 6.18365 -1.97494
20 1 18.4975 14.6499 8.74486 -3.14114
21 1 19.3242 17.2379 7.83925 -2.12966
36 1 14.364 19.4561 9.65047 -3.36102
41 1 19.3242 19.4561 9.65047 -3.36102
7 1 10.2304 13.171 10.5561 -3.38231
13 1 15.1907 13.171 10.5561 -3.38231
8 2 12.7106 14.2802 11.4617 -3.37982
10 2 17.6708 14.2802 11.4617 -3.37982
31 2 16.0174 17.9773 11.4617 -3.3805
34 1 13.5373 16.8681 10.5561 -3.39521
18 1 18.4975 16.8681 10.5561 -3.39521
19 2 20.9776 17.9773 11.4617 -3.3805
26 2 20.1509 15.3893 12.3673 -3.3758
32 2 13.5373 19.0864 12.3673 -3.3754
33 2 16.0174 20.1956 13.2729 -3.3829
42 1 16.8441 20.5653 10.5561 -3.41034
52 1 13.5373 21.3047 14.1785 -3.41034
53 2 14.364 21.6744 11.4617 -3.3829
60 2 16.8441 22.7835 12.3673 -3.3754
37 2 20.9776 20.1956 13.2729 -3.3829
38 1 18.4975 21.3047 14.1785 -3.41034
40 2 18.4975 19.0864 12.3673 -3.3754
43 2 19.3242 21.6744 11.4617 -3.3829
45 2 21.8043 22.7835 12.3673 -3.3754
46 1 21.8043 20.5653 10.5561 -3.41034
23 2 17.6708 27.5898 13.2729 -3.37982
54 2 14.364 23.8927 13.2729 -3.3805
58 1 16.8441 25.0018 14.1785 -3.39521
11 2 20.1509 26.4807 12.3673 -3.3758
57 2 19.3242 23.8927 13.2729 -3.3805
62 1 21.8043 25.0018 14.1785 -3.39521
12 2 22.631 27.5898 13.2729 -3.37982
30 1 20.1509 28.699 14.1785 -3.38231
24 1 25.1111 28.699 14.1785 -3.38231
49 1 16.0174 22.4138 15.0841 -3.36102
39 1 20.9776 22.4138 15.0841 -3.36102
51 1 16.0174 24.6321 16.8953 -2.12966
66 1 16.8441 27.2201 15.9897 -3.14114
55 1 20.9776 24.6321 16.8953 -2.12966
56 1 18.4975 23.523 15.9897 -3.20864
59 1 19.3242 26.111 15.0841 -3.35033
61 1 21.8043 27.2201 15.9897 -3.14114
107 1 20.4609 24.1238 18.5509 -1.97494
50 1 23.4577 23.523 15.9897 -3.20864
63 1 24.2844 26.111 15.0841 -3.35033
115 1 22.1143 27.8209 18.5509 -2.7565
117 1 25.4211 24.1238 18.5509 -1.97494
129 1 27.0745 27.8209 18.5509 -2.7565
25 1 17.6708 29.8081 15.0841 -3.36707
28 1 20.1509 30.9172 15.9897 -3.2157
65 1 19.3242 28.3292 16.8953 -3.00318
27 1 22.631 29.8081 15.0841 -3.36707
29 1 22.631 32.0264 16.8953 -2.54596
48 1 25.1111 30.9172 15.9897 -3.2157
64 1 24.2844 28.3292 16.8953 -3.00318
127 1 23.7677 31.518 18.5509 -2.38572
47 1 27.5912 32.0264 16.8953 -2.54596
140 1 28.7279 31.518 18.5509 -2.38572
114 1 20.4609 26.342 21.1122 -3.24763
116 1 17.9808 25.2329 20.2065 -3.03687
111 1 22.941 25.2329 20.2065 -3.03687
112 1 22.941 27.4512 22.0178 -3.3387
113 1 25.4211 26.342 21.1122 -3.24763
120 1 27.9012 27.4512 22.0178 -3.3387
110 1 20.4609 28.5603 22.9234 -3.39071
128 1 19.6342 28.93 20.2065 -3.02346
118 2 22.941 29.6694 23.829 -3.37634
119 1 22.1143 32.2574 22.9234 -3.3899
122 1 25.4211 28.5603 22.9234 -3.39071
123 1 24.5944 28.93 20.2065 -3.02346
124 1 24.5944 31.1483 22.0178 -3.33423
126 1 22.1143 30.0392 21.1122 -3.22187
121 2 27.9012 29.6694 23.829 -3.37634
125 1 27.0745 30.0392 21.1122 -3.22187
132 1 29.5546 31.1483 22.0178 -3.33423
134 1 27.0745 32.2574 22.9234 -3.3899
139 1 21.2876 32.6271 20.2065 -3.02805
130 2 24.5944 33.3666 23.829 -3.37634
131 1 23.7677 35.9546 22.9234 -3.39199
135 1 26.2478 32.6271 20.2065 -3.02805
136 1 26.2478 34.8454 22.0178 -3.33789
138 1 23.7677 33.7363 21.1122 -3.2221
141 2 26.2478 37.0637 23.829 -3.37634
133 2 29.5546 33.3666 23.829 -3.37634
137 1 28.7279 33.7363 21.1122 -3.2221
144 1 28.7279 35.9546 22.9234 -3.39199
142 1 31.208 34.8454 22.0178 -3.33789
143 2 31.208 37.0637 23.829 -3.37634
