ITEM: TIMESTEP
0
ITEM: NUMBER OF ATOMS
144
ITEM: BOX BOUNDS xy xz yz pp pp pp
0.0000000000000000e+00 2.4801083645679682e+01 4.9602167291359365e+00
0.0000000000000000e+00 3.7710698084230678e+01 9.9204334582718765e+00
0.0000000000000000e+00 2.0734580741297954e+01 2.6619316294751069e+01
ITEM: ATOMS id type x y z c_peatom
69 2 4.96022 0 0 -3.33954
70 2 0 0 0 -3.33954
82 2 1.65341 3.69713 0 -3.3432
81 2 6.61362 3.69713 0 -3.3432
80 2 4.13351 4.80627 0.905608 -3.35882
86 1 4.13351 7.02454 2.71682 -3.36945
87 1 4.13351 9.24282 4.52804 -3.23387
88 1 6.61362 8.13368 3.62243 -3.25292
91 2 9.09373 4.80627 0.905608 -3.35882
92 1 9.09373 7.02454 2.71682 -3.36945
93 1 6.61362 5.9154 1.81122 -3.35094
94 2 5.78692 8.50339 0.905608 -3.34703
95 2 8.26703 7.39425 0 -3.3432
98 1 9.09373 9.24282 4.52804 -3.23387
76 1 11.5738 5.9154 1.81122 -3.35094
89 1 11.5738 8.13368 3.62243 -3.25292
96 2 13.2272 7.39425 0 -3.3432
104 2 10.7471 8.50339 0.905608 -3.34703
68 2 7.44033 12.2005 0.905608 -3.35088
100 1 5.78692 10.7217 2.71682 -3.37208
101 1 5.78692 12.9399 4.52804 -2.91329
102 1 8.26703 11.8308 3.62243 -3.4133
106 1 8.26703 9.61253 1.81122 -3.33923
109 1 8.26703 14.0491 5.18365 -1.51443
67 1 14.8807 13.3097 1.81122 -3.3683
77 2 12.4005 12.2005 0.905608 -3.35088
79 1 9.92043 13.3097 1.81122 -3.3683
90 1 13.2272 9.61253 1.81122 -3.33923
97 1 13.2272 14.0491 5.18365 -1.51443
103 1 13.2272 11.8308 3.62243 -3.4133
105 1 10.7471 10.7217 2.71682 -3.37208
108 1 10.7471 12.9399 4.52804 -2.91329
72 1 7.44033 14.4188 2.71682 -3.36204
73 1 7.44033 16.6371 4.52804 -3.1777
74 1 9.92043 15.5279 3.62243 -3.2523
78 1 12.4005 14.4188 2.71682 -3.36204
84 1 12.4005 16.6371 4.52804 -3.1777
75 1 14.8807 15.5279 3.62243 -3.2523
85 1 4.96022 6.65483 5.18365 -3.2553
1 1 7.44033 7.76397 5.83925 -3.1777
9 1 4.96022 8.87311 6.74486 -3.2523
2 1 12.4005 7.76397 5.83925 -3.1777
3 1 9.92043 8.87311 6.74486 -3.2523
71 1 9.92043 6.65483 5.18365 -3.2553
5 1 5.78692 11.4611 5.83925 -1.4312
6 1 7.44033 9.98224 7.65047 -3.36204
7 1 4.96022 11.0914 8.55608 -3.3683
8 2 7.44033 12.2005 9.46168 -3.35088
15 1 8.26703 12.5702 6.74486 -3.10862
17 1 5.78692 13.6794 7.65047 -3.40893
99 1 6.61362 10.352 5.18365 -1.80385
4 1 12.4005 9.98224 7.65047 -3.36204
10 2 12.4005 12.2005 9.46168 -3.35088
13 1 9.92043 11.0914 8.55608 -3.3683
14 1 10.7471 11.4611 5.83925 -1.4312
16 1 10.7471 13.6794 7.65047 -3.40893
20 1 13.2272 12.5702 6.74486 -3.10862
83 1 11.5738 10.352 5.18365 -1.80385
34 1 8.26703 14.7885 8.55608 -3.37134
35 1 9.09373 15.1582 5.83925 -1.7664
36 1 9.09373 17.3765 7.65047 -3.37339
18 1 13.2272 14.7885 8.55608 -3.37134
21 1 14.0539 15.1582 5.83925 -1.7664
31 2 10.7471 15.8976 9.46168 -3.32787
41 1 14.0539 17.3765 7.65047 -3.37339
42 1 11.5738 18.4856 8.55608 -3.37412
44 1 11.5738 16.2674 6.74486 -3.26317
19 2 15.7074 15.8976 9.46168 -3.32787
22 1 16.5341 16.2674 6.74486 -3.26317
46 1 16.5341 18.4856 8.55608 -3.37412
53 2 9.09373 19.5948 9.46168 -3.3384
43 2 14.0539 19.5948 9.46168 -3.3384
26 2 14.8807 13.3097 10.3673 -3.33954
32 2 8.26703 17.0068 10.3673 -3.33906
33 2 10.7471 18.1159 11.2729 -3.3384
40 2 13.2272 17.0068 10.3673 -3.33906
37 2 15.7074 18.1159 11.2729 -3.3384
50 1 8.26703 21.4433 13.9897 -3.26317
52 1 8.26703 19.2251 12.1785 -3.37412
54 2 9.09373 21.8131 11.2729 -3.32787
38 1 13.2272 19.2251 12.1785 -3.37412
49 1 10.7471 20.3342 13.0841 -3.37339
51 1 10.7471 22.5525 14.8953 -1.7664
56 1 13.2272 21.4433 13.9897 -3.26317
57 2 14.0539 21.8131 11.2729 -3.32787
58 1 11.5738 22.9222 12.1785 -3.37134
60 2 11.5738 20.7039 10.3673 -3.33906
39 1 15.7074 20.3342 13.0841 -3.37339
45 2 16.5341 20.7039 10.3673 -3.33906
55 1 15.7074 22.5525 14.8953 -1.7664
62 1 16.5341 22.9222 12.1785 -3.37134
23 2 12.4005 25.5102 11.2729 -3.35088
25 1 12.4005 27.7285 13.0841 -3.36204
30 1 14.8807 26.6193 12.1785 -3.3683
59 1 14.0539 24.0313 13.0841 -3.40893
65 1 14.0539 26.2496 14.8953 -1.4312
66 1 11.5738 25.1405 13.9897 -3.10862
11 2 14.8807 24.401 10.3673 -3.33954
12 2 17.3608 25.5102 11.2729 -3.35088
27 1 17.3608 27.7285 13.0841 -3.36204
61 1 16.5341 25.1405 13.9897 -3.10862
63 1 19.0142 24.0313 13.0841 -3.40893
64 1 19.0142 26.2496 14.8953 -1.4312
24 1 19.8409 26.6193 12.1785 -3.3683
47 1 12.4005 29.9467 14.8953 -3.1777
28 1 14.8807 28.8376 13.9897 -3.2523
29 1 17.3608 29.9467 14.8953 -3.1777
48 1 19.8409 28.8376 13.9897 -3.2523
114 1 9.92043 22.1828 17.1122 -3.2523
107 1 9.92043 19.9645 15.5509 -3.2553
111 1 12.4005 21.0736 16.2065 -3.1777
112 1 12.4005 23.2919 18.0178 -3.36204
113 1 14.8807 22.1828 17.1122 -3.2523
116 1 17.3608 21.0736 16.2065 -3.1777
117 1 14.8807 19.9645 15.5509 -3.2553
120 1 17.3608 23.2919 18.0178 -3.36204
110 1 9.92043 24.401 18.9234 -3.3683
115 1 11.5738 23.6616 15.5509 -1.51443
118 2 12.4005 25.5102 19.829 -3.35088
119 1 11.5738 28.0982 18.9234 -3.33923
123 1 14.0539 24.7708 16.2065 -2.91329
124 1 14.0539 26.989 18.0178 -3.37208
126 1 11.5738 25.8799 17.1122 -3.4133
127 1 13.2272 27.3587 15.5509 -1.80385
121 2 17.3608 25.5102 19.829 -3.35088
122 1 14.8807 24.401 18.9234 -3.3683
125 1 16.5341 25.8799 17.1122 -3.4133
128 1 19.0142 24.7708 16.2065 -2.91329
129 1 16.5341 23.6616 15.5509 -1.51443
132 1 19.0142 26.989 18.0178 -3.37208
134 1 16.5341 28.0982 18.9234 -3.33923
140 1 18.1875 27.3587 15.5509 -1.80385
130 2 14.0539 29.2073 19.829 -3.34703
131 1 13.2272 31.7953 18.9234 -3.35094
138 1 13.2272 29.577 17.1122 -3.25292
133 2 19.0142 29.2073 19.829 -3.34703
135 1 15.7074 28.4679 16.2065 -3.23387
136 1 15.7074 30.6862 18.0178 -3.36945
137 1 18.1875 29.577 17.1122 -3.25292
141 2 15.7074 32.9044 19.829 -3.35882
144 1 18.1875 31.7953 18.9234 -3.35094
139 1 20.6676 28.4679 16.2065 -3.23387
142 1 20.6676 30.6862 18.0178 -3.36945
143 2 20.6676 32.9044 19.829 -3.35882
