#Lammps coordinate file for CSL - Axis: [1 1 1]  Angle: (1, 3) -> 59.99999999999999  Plane indices: [0 1 1]  z-position: [5.4336451853244885 16.300935555973464]  Repeats: 1 1 (3, 3) (black, white)  Fixed: 2.228  Boundary equiv: True
144 atoms

2 atom types

0.0 9.920433458271871 xlo xhi
0.0 11.091381789479609 ylo yhi
0.0 21.734580741297954 zlo zhi
4.9602167291359365 13.640596005123829 26.61931629475107 xy xz yz

Atoms

1 1 9.300406367129881 7.7639672526357275 6.339252716211904
2 1 14.260623096265814 7.763967252635727 6.339252716211904
3 1 11.78051473169785 8.873105431583689 7.24486024709932
4 1 14.260623096265814 9.98224361053165 8.150467777986734
5 1 17.567434249023105 11.461094515795597 6.339252716211904
6 1 9.300406367129881 9.98224361053165 8.150467777986734
7 1 6.8202980025619135 11.091381789479613 9.05607530887415
8 2 9.300406367129881 12.200519968427573 9.961682839761563
9 1 6.8202980025619135 8.87310543158369 7.244860247099319
10 2 14.260623096265814 12.200519968427573 9.961682839761563
11 2 11.78051473169785 13.309658147375533 10.867290370648979
12 2 14.260623096265816 14.418796326323495 11.772897901536393
13 1 11.78051473169785 11.091381789479613 9.05607530887415
14 1 12.607217519887168 11.461094515795597 6.339252716211904
15 1 10.127109155319204 12.57023269474356 7.244860247099319
16 1 12.60721751988717 13.679370873691521 8.150467777986734
17 1 17.567434249023105 13.67937087369152 8.150467777986734
18 1 15.08732588445514 14.788509052639482 9.05607530887415
19 2 17.56743424902311 15.897647231587442 9.961682839761563
20 1 15.087325884455137 12.57023269474356 7.24486024709932
21 1 15.914028672644463 15.158221778955468 6.339252716211903
22 1 18.39413703721243 16.26735995790343 7.244860247099318
23 2 9.300406367129881 14.418796326323495 11.772897901536393
24 1 6.820298002561914 15.527934505271457 12.678505432423808
25 1 9.300406367129881 16.63707268421942 13.584112963311222
26 2 6.820298002561914 13.309658147375535 10.867290370648979
27 1 14.260623096265817 16.63707268421942 13.584112963311222
28 1 11.78051473169785 17.746210863167377 14.489720494198638
29 1 14.260623096265817 18.85534904211534 15.395328025086053
30 1 11.78051473169785 15.527934505271457 12.678505432423808
31 2 12.607217519887172 15.897647231587444 9.961682839761563
32 2 10.127109155319204 17.006785410535404 10.867290370648979
33 2 12.607217519887172 18.115923589483366 11.772897901536393
34 1 10.127109155319204 14.788509052639483 9.05607530887415
35 1 10.953811943508526 15.158221778955468 6.339252716211903
36 1 10.953811943508526 17.376498136851392 8.150467777986734
37 2 17.56743424902311 18.115923589483366 11.772897901536393
38 1 15.08732588445514 19.225061768431328 12.678505432423808
39 1 17.56743424902311 20.33419994737929 13.584112963311224
40 2 15.08732588445514 17.006785410535404 10.867290370648979
41 1 15.914028672644463 17.37649813685139 8.150467777986734
42 1 13.433920308076495 18.485636315799354 9.05607530887415
43 2 15.914028672644463 19.594774494747313 9.961682839761563
44 1 13.433920308076495 16.26735995790343 7.244860247099319
45 2 18.39413703721243 20.703912673695275 10.867290370648977
46 1 18.39413703721243 18.48563631579935 9.05607530887415
47 1 9.300406367129883 18.855349042115343 15.395328025086052
48 1 6.820298002561915 17.74621086316738 14.489720494198638
49 1 12.607217519887172 20.33419994737929 13.584112963311222
50 1 10.127109155319207 21.443338126327248 14.489720494198638
51 1 12.607217519887172 22.55247630527521 15.395328025086053
52 1 10.127109155319205 19.225061768431328 12.678505432423808
53 2 10.953811943508526 19.594774494747313 9.961682839761563
54 2 10.953811943508526 21.813050852643237 11.772897901536393
55 1 17.56743424902311 22.55247630527521 15.395328025086052
56 1 15.08732588445514 21.443338126327248 14.48972049419864
57 2 15.914028672644463 21.813050852643237 11.772897901536393
58 1 13.433920308076495 22.9221890315912 12.678505432423808
59 1 15.914028672644463 24.03132721053916 13.584112963311224
60 2 13.433920308076495 20.703912673695275 10.867290370648979
61 1 18.394137037212428 25.14046538948712 14.489720494198636
62 1 18.394137037212428 22.922189031591195 12.678505432423808
63 1 10.953811943508526 24.03132721053916 13.58411296331122
64 1 10.953811943508526 26.24960356843508 15.395328025086052
65 1 15.914028672644463 26.24960356843508 15.39532802508605
66 1 13.433920308076495 25.14046538948712 14.489720494198638
67 1 0.0 2.2182763578959226 1.8112150617748295
68 2 2.4801083645679673 1.109138178947961 0.9056075308874146
69 2 4.960216729135936 -4.440892098500626e-16 -1.9455644930253686e-16
70 2 0.0 0.0 0.0
71 1 8.881784197001252e-16 6.654829073687768 5.4336451853244885
72 1 2.4801083645679673 3.327414536843884 2.7168225926622442
73 1 2.4801083645679682 5.545690894739806 4.528037654437074
74 1 4.960216729135936 4.436552715791845 3.622430123549659
75 1 8.881784197001252e-16 4.436552715791845 3.622430123549659
76 1 1.6534055763786455 5.915403621055794 1.811215061774829
77 2 7.440325093703903 1.109138178947961 0.9056075308874145
78 1 7.440325093703903 3.3274145368438837 2.7168225926622442
79 1 4.960216729135936 2.218276357895922 1.8112150617748293
80 2 4.133513940946613 4.806265442107832 0.9056075308874143
81 2 6.61362230551458 3.6971272631598704 -5.836693479076105e-16
82 2 1.6534055763786455 3.697127263159871 -3.8911289860507373e-16
83 1 1.6534055763786455 10.351956336847639 5.4336451853244885
84 1 7.440325093703903 5.545690894739806 4.528037654437074
85 1 4.960216729135936 6.654829073687768 5.4336451853244885
86 1 4.133513940946613 7.024541800003755 2.716822592662244
87 1 4.133513940946613 9.242818157899677 4.528037654437074
88 1 6.61362230551458 8.133679978951715 3.6224301235496585
89 1 1.6534055763786455 8.133679978951717 3.6224301235496585
90 1 3.3068111527572905 9.612530884215664 1.8112150617748288
91 2 9.093730670082548 4.806265442107832 0.9056075308874142
92 1 9.093730670082547 7.024541800003755 2.716822592662244
93 1 6.61362230551458 5.915403621055793 1.8112150617748288
94 2 5.7869195173252574 8.503392705267704 0.9056075308874139
95 2 8.267027881893226 7.394254526319742 -9.727822465126844e-16
96 2 3.3068111527572905 7.394254526319742 -7.782257972101475e-16
97 1 3.306811152757291 14.04908360000751 5.433645185324488
98 1 9.093730670082547 9.242818157899677 4.528037654437074
99 1 6.613622305514581 10.351956336847639 5.4336451853244885
100 1 5.786919517325258 10.721669063163626 2.7168225926622434
101 1 5.786919517325258 12.939945421059548 4.528037654437073
102 1 8.267027881893226 11.830807242111586 3.622430123549658
103 1 3.306811152757291 11.830807242111588 3.622430123549658
104 2 10.747136246461192 8.503392705267704 0.9056075308874137
105 1 10.747136246461192 10.721669063163626 2.7168225926622434
106 1 8.267027881893226 9.612530884215664 1.8112150617748286
107 1 13.640596005123825 19.964487221063305 16.300935555973467
108 1 10.747136246461192 12.939945421059548 4.528037654437073
109 1 8.267027881893226 14.04908360000751 5.433645185324488
110 1 13.640596005123825 24.40103993685515 19.923365679523123
111 1 16.120704369691794 21.073625400011267 17.20654308686088
112 1 16.120704369691794 23.29190175790719 19.01775814863571
113 1 18.600812734259762 22.18276357895923 18.112150617748295
114 1 13.640596005123825 22.18276357895923 18.112150617748295
115 1 15.29400158150247 23.661614484223175 16.300935555973464
116 1 21.080921098827726 21.073625400011267 17.20654308686088
117 1 18.600812734259762 19.964487221063305 16.300935555973464
118 2 16.120704369691794 25.51017811580311 20.82897321041054
119 1 15.29400158150247 28.09816720001502 19.923365679523123
120 1 21.080921098827726 23.291901757907187 19.017758148635707
121 2 21.08092109882773 25.51017811580311 20.82897321041054
122 1 18.600812734259762 24.40103993685515 19.923365679523126
123 1 17.77410994607044 24.770752663171137 17.20654308686088
124 1 17.77410994607044 26.98902902106706 19.01775814863571
125 1 20.254218310638407 25.8798908421191 18.112150617748295
126 1 15.29400158150247 25.8798908421191 18.112150617748295
127 1 16.947407157881116 27.358741747383046 16.300935555973464
128 1 22.734326675206376 24.770752663171137 17.20654308686088
129 1 20.254218310638407 23.661614484223175 16.300935555973464
130 2 17.77410994607044 29.20730537896298 20.82897321041054
131 1 16.947407157881116 31.79529446317489 19.923365679523123
132 1 22.734326675206376 26.989029021067058 19.017758148635707
133 2 22.734326675206376 29.20730537896298 20.82897321041054
134 1 20.254218310638407 28.09816720001502 19.923365679523126
135 1 19.427515522449085 28.46787992633101 17.20654308686088
136 1 19.427515522449085 30.686156284226932 19.01775814863571
137 1 21.907623887017053 29.57701810527897 18.112150617748295
138 1 16.947407157881116 29.57701810527897 18.112150617748295
139 1 24.38773225158502 28.46787992633101 17.20654308686088
140 1 21.907623887017053 27.358741747383046 16.300935555973464
141 2 19.427515522449085 32.904432642122856 20.82897321041054
142 1 24.38773225158502 30.68615628422693 19.017758148635707
143 2 24.38773225158502 32.904432642122856 20.82897321041054
144 1 21.907623887017053 31.79529446317489 19.923365679523126
