ITEM: TIMESTEP
52
ITEM: NUMBER OF ATOMS
144
ITEM: BOX BOUNDS xy xz yz pp pp pp
0.0000000000000000e+00 2.4801083645679689e+01 4.9602167291359365e+00
0.0000000000000000e+00 4.6029234426340395e+01 9.9204334582718801e+00
0.0000000000000000e+00 2.2734580741297954e+01 3.4937852636860782e+01
ITEM: ATOMS id type x y z c_peatom
69 2 4.96022 0 0 -3.34823
70 2 0 0 0 -3.34823
81 2 6.61362 3.69713 0 -3.36266
82 2 11.5738 3.69713 0 -3.36266
80 2 4.13351 4.80627 0.905608 -3.35881
86 1 4.15431 6.98057 2.68398 -3.38747
88 1 6.63765 8.07499 3.47101 -3.28854
91 2 9.09373 4.80627 0.905608 -3.35881
92 1 9.11453 6.98057 2.68398 -3.38747
93 1 6.62511 5.85825 1.81046 -3.3596
94 2 5.78692 8.50339 0.905608 -3.37408
95 2 8.26703 7.39425 0 -3.36266
76 1 11.5853 5.85825 1.81046 -3.3596
89 1 11.5979 8.07499 3.47101 -3.28854
96 2 13.2272 7.39425 0 -3.36266
104 2 10.7471 8.50339 0.905608 -3.37408
87 1 4.09119 9.21592 4.3302 -3.19088
68 2 7.44033 12.2005 0.905608 -3.34467
79 1 9.91155 13.3125 1.8747 -3.34249
98 1 9.0514 9.21592 4.3302 -3.19088
100 1 5.79491 10.7796 2.71609 -3.34553
101 1 5.80474 12.9312 4.83173 -3.3015
102 1 8.25556 11.8723 3.83271 -3.31745
106 1 8.26885 9.6551 1.76387 -3.35701
67 1 14.8718 13.3125 1.8747 -3.34249
77 2 12.4005 12.2005 0.905608 -3.34467
90 1 13.2291 9.6551 1.76387 -3.35701
103 1 13.2158 11.8723 3.83271 -3.31745
105 1 10.7551 10.7796 2.71609 -3.34553
108 1 10.765 12.9312 4.83173 -3.3015
72 1 7.44812 14.4057 2.82936 -3.35654
73 1 7.53903 16.7206 4.58744 -3.27628
74 1 9.97382 15.5078 3.70182 -3.36212
75 1 14.934 15.5078 3.70182 -3.36212
78 1 12.4083 14.4057 2.82936 -3.35654
84 1 12.4992 16.7206 4.58744 -3.27628
9 1 5.04064 12.9558 7.69385 -3.27641
1 1 7.59375 11.866 6.88448 -3.17438
3 1 10.0009 12.9558 7.69385 -3.27641
99 1 6.50653 10.0042 5.32718 -3.09941
2 1 12.554 11.866 6.88448 -3.17438
83 1 11.4668 10.0042 5.32718 -3.09941
5 1 5.83294 15.4109 6.59812 -3.30908
6 1 7.48955 14.1725 8.59128 -3.36145
15 1 8.28992 16.741 7.45676 -3.29849
85 1 10.1054 17.8159 5.38981 -3.17265
109 1 8.30981 14.2653 5.6893 -3.30949
4 1 12.4498 14.1725 8.59128 -3.36145
14 1 10.7932 15.4109 6.59812 -3.30908
16 1 10.7381 17.7829 8.46993 -3.32339
20 1 13.2501 16.741 7.45676 -3.29849
71 1 15.0657 17.8159 5.38981 -3.17265
97 1 13.27 14.2653 5.6893 -3.30949
17 1 15.6983 17.7829 8.46993 -3.32339
35 1 8.98135 19.6401 6.93214 -3.0967
36 1 9.09912 21.5837 8.76165 -3.28512
21 1 13.9416 19.6401 6.93214 -3.0967
41 1 14.0593 21.5837 8.76165 -3.28512
44 1 11.526 20.4357 7.91188 -3.18525
22 1 16.4862 20.4357 7.91188 -3.18525
7 1 4.96775 15.2491 9.46448 -3.35473
8 2 7.44033 16.3598 10.4617 -3.33297
13 1 9.92797 15.2491 9.46448 -3.35473
10 2 12.4005 16.3598 10.4617 -3.33297
32 2 8.26703 21.1661 11.3673 -3.37309
34 1 8.26989 18.89 9.55714 -3.34604
18 1 13.2301 18.89 9.55714 -3.34604
31 2 10.7471 20.0569 10.4617 -3.35714
33 2 10.7471 22.2752 12.2729 -3.36629
40 2 13.2272 21.1661 11.3673 -3.37309
42 1 11.5834 22.6858 9.57325 -3.39214
19 2 15.7074 20.0569 10.4617 -3.35714
37 2 15.7074 22.2752 12.2729 -3.36629
46 1 16.5437 22.6858 9.57325 -3.39214
52 1 8.25742 23.3434 13.1613 -3.39214
53 2 9.09373 23.754 10.4617 -3.36629
54 2 9.09373 25.9723 12.2729 -3.35714
38 1 13.2176 23.3434 13.1613 -3.39214
43 2 14.0539 23.754 10.4617 -3.36629
57 2 14.0539 25.9723 12.2729 -3.35714
58 1 11.571 27.1392 13.1774 -3.34604
60 2 11.5738 24.8632 11.3673 -3.37309
45 2 16.5341 24.8632 11.3673 -3.37309
62 1 16.5312 27.1392 13.1774 -3.34604
26 2 9.92043 28.5603 11.3673 -3.34756
11 2 14.8807 28.5603 11.3673 -3.34756
23 2 12.4005 29.6694 12.2729 -3.33297
30 1 14.8731 30.7801 13.2701 -3.35473
12 2 17.3608 29.6694 12.2729 -3.33297
24 1 19.8333 30.7801 13.2701 -3.35473
50 1 8.31487 25.5935 14.8227 -3.18525
49 1 10.7417 24.4456 13.9729 -3.28512
51 1 10.8595 26.3891 15.8024 -3.0967
56 1 13.2751 25.5935 14.8227 -3.18525
39 1 15.702 24.4456 13.9729 -3.28512
55 1 15.8197 26.3891 15.8024 -3.0967
63 1 9.10279 28.2464 14.2646 -3.32339
107 1 9.73542 28.2134 17.3448 -3.17265
25 1 12.3513 31.8567 14.1433 -3.36145
59 1 14.063 28.2464 14.2646 -3.32339
65 1 14.0079 30.6183 16.1365 -3.30908
66 1 11.5509 29.2882 15.2778 -3.29849
115 1 11.5311 31.7639 17.0453 -3.30949
117 1 14.6956 28.2134 17.3448 -3.17265
27 1 17.3115 31.8567 14.1433 -3.36145
61 1 16.5112 29.2882 15.2778 -3.29849
64 1 18.9681 30.6183 16.1365 -3.30908
129 1 16.4913 31.7639 17.0453 -3.30949
28 1 14.8002 33.0734 15.0407 -3.27641
47 1 12.2471 34.1632 15.8501 -3.17438
127 1 13.3343 36.025 17.4074 -3.09941
29 1 17.2073 34.1632 15.8501 -3.17438
48 1 19.7604 33.0734 15.0407 -3.27641
140 1 18.2946 36.025 17.4074 -3.09941
114 1 9.86705 30.5214 19.0328 -3.36212
111 1 12.3018 29.3086 18.1471 -3.27628
112 1 12.3927 31.6235 19.9052 -3.35654
113 1 14.8273 30.5214 19.0328 -3.36212
116 1 17.2621 29.3086 18.1471 -3.27628
120 1 17.353 31.6235 19.9052 -3.35654
110 1 9.92931 32.7167 20.8599 -3.34249
118 2 12.4005 33.8287 21.829 -3.34467
119 1 11.572 36.3741 20.9707 -3.35701
122 1 14.8895 32.7167 20.8599 -3.34249
123 1 14.0361 33.098 17.9028 -3.3015
124 1 14.046 35.2496 20.0185 -3.34553
126 1 11.5853 34.1569 18.9019 -3.31745
121 2 17.3608 33.8287 21.829 -3.34467
125 1 16.5455 34.1569 18.9019 -3.31745
128 1 18.9963 33.098 17.9028 -3.3015
132 1 19.0062 35.2496 20.0185 -3.34553
134 1 16.5322 36.3741 20.9707 -3.35701
135 1 15.7497 36.8133 18.4044 -3.19088
139 1 20.7099 36.8133 18.4044 -3.19088
130 2 14.0539 37.5258 21.829 -3.37408
131 1 13.2158 40.171 20.9241 -3.3596
138 1 13.2032 37.9542 19.2636 -3.28854
133 2 19.0142 37.5258 21.829 -3.37408
136 1 15.6866 39.0487 20.0506 -3.38747
137 1 18.1634 37.9542 19.2636 -3.28854
141 2 15.7074 41.223 21.829 -3.35881
144 1 18.176 40.171 20.9241 -3.3596
142 1 20.6468 39.0487 20.0506 -3.38747
143 2 20.6676 41.223 21.829 -3.35881
