ITEM: TIMESTEP
100000
ITEM: NUMBER OF ATOMS
144
ITEM: BOX BOUNDS xy xz yz pp pp pp
0.0000000000000000e+00 2.5421110736821674e+01 4.9602167291359365e+00
0.0000000000000000e+00 5.0188502597395242e+01 1.0540460549413869e+01
0.0000000000000000e+00 1.9734580741297954e+01 3.9097120807915630e+01
ITEM: ATOMS id type x y z c_peatom
69 2 4.96022 0 0 -3.32951
70 2 0 0 0 -3.32951
81 2 6.61362 3.69713 0 -3.27881
82 2 11.5738 3.69713 0 -3.27881
80 2 4.13351 4.80627 0.905608 -3.28371
86 1 4.24239 6.82059 2.42075 -3.17902
87 1 4.54101 8.86206 4.01195 -3.23439
88 1 6.86712 7.76735 3.27361 -3.24565
91 2 9.09373 4.80627 0.905608 -3.28371
92 1 9.20261 6.82059 2.42075 -3.17902
93 1 6.64209 5.76939 1.63171 -3.27122
94 2 5.78692 8.50339 0.905608 -3.26982
95 2 8.26703 7.39425 0 -3.27881
98 1 9.50123 8.86206 4.01195 -3.23439
76 1 11.6023 5.76939 1.63171 -3.27122
89 1 11.8273 7.76735 3.27361 -3.24565
96 2 13.2272 7.39425 0 -3.27881
104 2 10.7471 8.50339 0.905608 -3.26982
68 2 7.44033 12.2005 0.905608 -3.31543
79 1 9.93847 13.2604 1.73919 -3.34191
100 1 5.9936 10.4729 2.42211 -3.12092
101 1 6.23129 12.3221 4.03137 -3.12811
102 1 8.58371 11.4171 3.23196 -3.18601
106 1 8.34037 9.4604 1.60812 -3.23084
109 1 8.95037 13.3353 4.83549 -3.11746
99 1 7.09761 9.76408 4.88676 -3.28622
67 1 14.8987 13.2604 1.73919 -3.34191
77 2 12.4005 12.2005 0.905608 -3.31543
90 1 13.3006 9.4604 1.60812 -3.23084
103 1 13.5439 11.4171 3.23196 -3.18601
105 1 10.9538 10.4729 2.42211 -3.12092
108 1 11.1915 12.3221 4.03137 -3.12811
97 1 13.9106 13.3353 4.83549 -3.11746
83 1 12.0578 9.76408 4.88676 -3.28622
72 1 7.47844 14.2795 2.63696 -3.32521
73 1 7.21601 16.3023 4.30395 -3.10689
74 1 9.92248 15.3558 3.46222 -3.2766
75 1 14.8827 15.3558 3.46222 -3.2766
78 1 12.4387 14.2795 2.63696 -3.32521
84 1 12.1762 16.3023 4.30395 -3.10689
9 1 4.9108 15.4276 6.33401 -3.08235
1 1 6.78559 14.1282 5.6768 -2.95674
6 1 7.60284 16.2945 7.21255 -3.32373
7 1 5.20909 17.3997 8.13285 -3.33348
85 1 9.22774 17.5066 4.97739 -2.99214
3 1 9.87101 15.4276 6.33401 -3.08235
2 1 11.7458 14.1282 5.6768 -2.95674
4 1 12.5631 16.2945 7.21255 -3.32373
13 1 10.1693 17.3997 8.13285 -3.33348
71 1 14.188 17.5066 4.97739 -2.99214
5 1 6.48204 18.2876 5.86114 -3.12705
8 2 7.75034 18.4394 8.96168 -3.34158
15 1 8.80856 19.3082 6.64378 -3.15551
34 1 8.64983 21.2018 8.29503 -3.19292
35 1 9.62893 21.8297 5.77439 -3.29272
14 1 11.4423 18.2876 5.86114 -3.12705
10 2 12.7106 18.4394 8.96168 -3.34158
16 1 11.2089 20.184 7.44223 -3.15065
18 1 13.61 21.2018 8.29503 -3.19292
20 1 13.7688 19.3082 6.64378 -3.15551
21 1 14.5891 21.8297 5.77439 -3.29272
31 2 11.0571 22.1365 8.96168 -3.26032
44 1 12.1235 22.7734 6.59938 -3.25184
17 1 16.1691 20.184 7.44223 -3.15065
19 2 16.0174 22.1365 8.96168 -3.26032
22 1 17.0837 22.7734 6.59938 -3.25184
36 1 9.5571 23.8533 7.35956 -3.23557
53 2 9.40374 25.8337 8.96168 -3.27153
41 1 14.5173 23.8533 7.35956 -3.23557
42 1 11.9247 24.8215 8.29542 -3.23402
43 2 14.364 25.8337 8.96168 -3.27153
46 1 16.8849 24.8215 8.29542 -3.23402
32 2 8.57704 23.2457 9.86729 -3.28239
52 1 8.53619 25.367 11.4392 -3.23402
33 2 11.0571 24.3548 10.7729 -3.27153
38 1 13.4964 25.367 11.4392 -3.23402
40 2 13.5373 23.2457 9.86729 -3.28239
49 1 10.9038 26.3352 12.375 -3.23557
60 2 11.8839 26.9428 9.86729 -3.28239
37 2 16.0174 24.3548 10.7729 -3.27153
39 1 15.864 26.3352 12.375 -3.23557
45 2 16.8441 26.9428 9.86729 -3.28239
50 1 8.33741 27.4151 13.1352 -3.25184
54 2 9.40374 28.052 10.7729 -3.26032
63 1 9.25198 30.0045 12.2924 -3.15065
11 2 15.1907 30.6399 9.86729 -3.31288
23 2 12.7106 31.7491 10.7729 -3.34158
26 2 10.2304 30.6399 9.86729 -3.31288
51 1 10.832 28.3588 13.9602 -3.29272
56 1 13.2976 27.4151 13.1352 -3.25184
57 2 14.364 28.052 10.7729 -3.26032
58 1 11.8111 28.9867 11.4396 -3.19292
59 1 14.2122 30.0045 12.2924 -3.15065
66 1 11.6523 30.8803 13.0908 -3.15551
65 1 13.9789 31.9009 13.8734 -3.12705
12 2 17.6708 31.7491 10.7729 -3.34158
55 1 15.7922 28.3588 13.9602 -3.29272
61 1 16.6126 30.8803 13.0908 -3.15551
62 1 16.7713 28.9867 11.4396 -3.19292
64 1 18.9391 31.9009 13.8734 -3.12705
25 1 12.8581 33.8941 12.522 -3.32373
30 1 15.2518 32.7888 11.6017 -3.33348
47 1 13.6753 36.0603 14.0578 -2.95674
107 1 11.2332 32.6819 14.7572 -2.99214
28 1 15.5501 34.7609 13.4006 -3.08235
24 1 20.212 32.7888 11.6017 -3.33348
27 1 17.8183 33.8941 12.522 -3.32373
29 1 18.6355 36.0603 14.0578 -2.95674
117 1 16.1934 32.6819 14.7572 -2.99214
48 1 20.5103 34.7609 13.4006 -3.08235
111 1 13.2449 33.8862 15.4306 -3.10689
112 1 12.9825 35.9091 17.0976 -3.32521
114 1 10.5384 34.8327 16.2724 -3.2766
113 1 15.4986 34.8327 16.2724 -3.2766
116 1 18.2051 33.8862 15.4306 -3.10689
120 1 17.9427 35.9091 17.0976 -3.32521
115 1 11.5105 36.8532 14.8991 -3.11746
127 1 13.3633 40.4244 14.8478 -3.28622
110 1 10.5224 36.9281 17.9954 -3.34191
118 2 13.0206 37.988 18.829 -3.31543
119 1 12.1205 40.7281 18.1265 -3.23084
123 1 14.2296 37.8664 15.7032 -3.12811
124 1 14.4673 39.7156 17.3125 -3.12092
126 1 11.8772 38.7714 16.5026 -3.18601
129 1 16.4707 36.8532 14.8991 -3.11746
140 1 18.3235 40.4244 14.8478 -3.28622
121 2 17.9808 37.988 18.829 -3.31543
122 1 15.4826 36.9281 17.9954 -3.34191
125 1 16.8374 38.7714 16.5026 -3.18601
128 1 19.1898 37.8664 15.7032 -3.12811
132 1 19.4275 39.7156 17.3125 -3.12092
134 1 17.0807 40.7281 18.1265 -3.23084
130 2 14.674 41.6851 18.829 -3.26982
131 1 13.8188 44.4191 18.1029 -3.27122
138 1 13.5938 42.4212 16.461 -3.24565
135 1 15.9199 41.3264 15.7226 -3.23439
133 2 19.6342 41.6851 18.829 -3.26982
136 1 16.2185 43.3679 17.3138 -3.17902
137 1 18.554 42.4212 16.461 -3.24565
141 2 16.3274 45.3822 18.829 -3.28371
144 1 18.779 44.4191 18.1029 -3.27122
139 1 20.8801 41.3264 15.7226 -3.23439
142 1 21.1787 43.3679 17.3138 -3.17902
143 2 21.2876 45.3822 18.829 -3.28371
