LAMMPS (29 Aug 2024 - Update 2)
#---------------------------------------------------------------------------------------------------
# Initilise important features of simulation
#---------------------------------------------------------------------------------------------------
units 		metal	# Use metals units (Ang, ps, eV, bar, etc.)
dimension 	3		# Run the simulation in three dimensions
boundary 	p p p	# Use periodic boundaries in all three dimensions
atom_style 	atomic	#
#box tilt large		# Allow larger than normal tilt factors

variable T_start equal 600
variable T_end equal 200
variable tstep equal 0.002
timestep ${tstep}
timestep 0.002

read_data   lammps.txt	# Read in atom coordinates from a file
Reading data file ...
  triclinic box = (0 0 0) to (9.9204335 11.091382 19.734581) with tilt (4.9602167 11.160488 46.029234)
WARNING: Triclinic box skew is large. LAMMPS will run inefficiently. (src/domain.cpp:221)
  1 by 1 by 1 MPI processor grid
  reading atoms ...
  144 atoms
  read_data CPU = 0.001 seconds

#---------------------------------------------------------------------------------------------------
# Define how the forces between the atoms will be modelled
#---------------------------------------------------------------------------------------------------
pair_style eam/alloy
pair_coeff * * Zope-Ti-Al-2003.eam.alloy.txt Al Al

#---------------------------------------------------------------------------------------------------
# Set behaviour of simulation
#---------------------------------------------------------------------------------------------------
group g_fixed type 2
36 atoms in group g_fixed
group g_other type 1
108 atoms in group g_other
fix f_freeze g_fixed setforce 0.0 0.0 0.0 	# Hold atoms of type 2 fixed in place
#fix f_constrain g_other setforce 0.0 0.0 NULL 	# All atoms of type 1 to move only in z direction

#---------------------------------------------------------------------------------------------------
# Specify what information to write out
#---------------------------------------------------------------------------------------------------
thermo_style custom step atoms temp pe ke etotal fmax
thermo_modify format 6 %20.10f
thermo 1000

#compute statom all stress/atom NULL
compute peatom all pe/atom
dump 1 all custom 100000 dump.* id type x y z c_peatom
dump_modify 1 first yes


#---------------------------------------------------------------------------------------------------
# Initial relaxation
#---------------------------------------------------------------------------------------------------
velocity all set 0.0 0.0 0.0

min_style 	cg
min_modify dmax 0.1
minimize 	0.0 1.0e-6 10000 100000
Neighbor list info ...
  update: every = 1 steps, delay = 0 steps, check = yes
  max neighbors/atom: 2000, page size: 100000
  master list distance cutoff = 8.724884
  ghost atom cutoff = 8.724884
  binsize = 4.362442, bins = 6 14 5
  1 neighbor lists, perpetual/occasional/extra = 1 0 0
  (1) pair eam/alloy, perpetual
      attributes: half, newton on
      pair build: half/bin/atomonly/newton/tri
      stencil: half/bin/3d/tri
      bin: standard
Per MPI rank memory allocation (min/avg/max) = 4.756 | 4.756 | 4.756 Mbytes
   Step        Atoms         Temp          PotEng         KinEng         TotEng          Fmax     
         0         144   0             -354.56969      0                  -354.5696941434  20.759542    
        69         144   0             -461.89017      0                  -461.8901718263  1.6880786e-07
Loop time of 0.0146157 on 1 procs for 69 steps with 144 atoms

97.8% CPU use with 1 MPI tasks x no OpenMP threads

Minimization stats:
  Stopping criterion = force tolerance
  Energy initial, next-to-last, final = 
     -354.569694143384  -461.890171826346  -461.890171826341
  Force two-norm initial, final = 79.533801 9.4626112e-07
  Force max component initial, final = 20.759542 1.6880786e-07
  Final line search alpha, max atom move = 1 1.6880786e-07
  Iterations, force evaluations = 69 119

MPI task timing breakdown:
Section |  min time  |  avg time  |  max time  |%varavg| %total
---------------------------------------------------------------
Pair    | 0.01246    | 0.01246    | 0.01246    |   0.0 | 85.25
Neigh   | 0.00055846 | 0.00055846 | 0.00055846 |   0.0 |  3.82
Comm    | 0.00086541 | 0.00086541 | 0.00086541 |   0.0 |  5.92
Output  | 0          | 0          | 0          |   0.0 |  0.00
Modify  | 1.8711e-05 | 1.8711e-05 | 1.8711e-05 |   0.0 |  0.13
Other   |            | 0.0007132  |            |       |  4.88

Nlocal:            144 ave         144 max         144 min
Histogram: 1 0 0 0 0 0 0 0 0 0
Nghost:           4140 ave        4140 max        4140 min
Histogram: 1 0 0 0 0 0 0 0 0 0
Neighs:          13306 ave       13306 max       13306 min
Histogram: 1 0 0 0 0 0 0 0 0 0

Total # of neighbors = 13306
Ave neighs/atom = 92.402778
Neighbor list builds = 1
Dangerous builds = 0
#---------------------------------------------------------------------------------------------------
# Anneal boundary structures
#---------------------------------------------------------------------------------------------------
reset_timestep 100000
fix md g_other nvt temp ${T_start} ${T_end} $(100.0*v_tstep)
fix md g_other nvt temp 600 ${T_end} $(100.0*v_tstep)
fix md g_other nvt temp 600 200 $(100.0*v_tstep)
fix md g_other nvt temp 600 200 0.2000000000000000111

velocity all create ${T_start} 4928459 rot yes mom yes dist gaussian
velocity all create 600 4928459 rot yes mom yes dist gaussian
run 10000
Per MPI rank memory allocation (min/avg/max) = 5.013 | 5.013 | 5.013 Mbytes
   Step        Atoms         Temp          PotEng         KinEng         TotEng          Fmax     
    100000         144   600           -461.89017      11.09052           -450.7996513853  1.6880784e-07
    101000         144   574.42603     -454.11603      10.617806          -443.4982276469  1.8137278    
    102000         144   611.94437     -453.82452      11.311303          -442.5132189651  1.2972376    
    103000         144   540.71108     -455.23408      9.9946122          -445.2394652466  1.5676567    
    104000         144   545.59216     -454.7862       10.084835          -444.7013641201  1.2629034    
    105000         144   463.90967     -456.46538      8.5749994          -447.8903839386  1.1517609    
    106000         144   440.91971     -456.05286      8.1500484          -447.9028122822  1.3306364    
    107000         144   418.30601     -457.68         7.7320523          -449.9479501090  1.0945129    
    108000         144   387.42123     -458.50847      7.1611717          -451.3472985671  0.93588386   
    109000         144   355.49185     -459.06602      6.5709828          -452.4950385970  1.2141969    
    110000         144   306.36264     -459.41528      5.6628685          -453.7524154048  0.87162079   
Loop time of 1.05052 on 1 procs for 10000 steps with 144 atoms

Performance: 1644.903 ns/day, 0.015 hours/ns, 9519.117 timesteps/s, 1.371 Matom-step/s
99.9% CPU use with 1 MPI tasks x no OpenMP threads

MPI task timing breakdown:
Section |  min time  |  avg time  |  max time  |%varavg| %total
---------------------------------------------------------------
Pair    | 0.9292     | 0.9292     | 0.9292     |   0.0 | 88.45
Neigh   | 0.025816   | 0.025816   | 0.025816   |   0.0 |  2.46
Comm    | 0.071576   | 0.071576   | 0.071576   |   0.0 |  6.81
Output  | 9.0417e-05 | 9.0417e-05 | 9.0417e-05 |   0.0 |  0.01
Modify  | 0.010708   | 0.010708   | 0.010708   |   0.0 |  1.02
Other   |            | 0.01313    |            |       |  1.25

Nlocal:            144 ave         144 max         144 min
Histogram: 1 0 0 0 0 0 0 0 0 0
Nghost:           4098 ave        4098 max        4098 min
Histogram: 1 0 0 0 0 0 0 0 0 0
Neighs:          13166 ave       13166 max       13166 min
Histogram: 1 0 0 0 0 0 0 0 0 0

Total # of neighbors = 13166
Ave neighs/atom = 91.430556
Neighbor list builds = 48
Dangerous builds = 0
unfix md

#---------------------------------------------------------------------------------------------------
# Final relaxation
#---------------------------------------------------------------------------------------------------
velocity all set 0.0 0.0 0.0

min_style 	cg
min_modify dmax 0.1
minimize 	0.0 1.0e-6 10000 100000
Per MPI rank memory allocation (min/avg/max) = 6.138 | 6.138 | 6.138 Mbytes
   Step        Atoms         Temp          PotEng         KinEng         TotEng          Fmax     
    110000         144   0             -459.41528      0                  -459.4152838986  0.87162079   
    110146         144   0             -462.10289      0                  -462.1028902654  2.4893719e-07
Loop time of 0.0330005 on 1 procs for 146 steps with 144 atoms

98.8% CPU use with 1 MPI tasks x no OpenMP threads

Minimization stats:
  Stopping criterion = force tolerance
  Energy initial, next-to-last, final = 
     -459.415283898639  -462.102890265423  -462.102890265422
  Force two-norm initial, final = 5.4972875 9.560989e-07
  Force max component initial, final = 0.87162079 2.4893719e-07
  Final line search alpha, max atom move = 1 2.4893719e-07
  Iterations, force evaluations = 146 291

MPI task timing breakdown:
Section |  min time  |  avg time  |  max time  |%varavg| %total
---------------------------------------------------------------
Pair    | 0.029736   | 0.029736   | 0.029736   |   0.0 | 90.11
Neigh   | 0          | 0          | 0          |   0.0 |  0.00
Comm    | 0.0020366  | 0.0020366  | 0.0020366  |   0.0 |  6.17
Output  | 0          | 0          | 0          |   0.0 |  0.00
Modify  | 4.2166e-05 | 4.2166e-05 | 4.2166e-05 |   0.0 |  0.13
Other   |            | 0.001186   |            |       |  3.59

Nlocal:            144 ave         144 max         144 min
Histogram: 1 0 0 0 0 0 0 0 0 0
Nghost:           4094 ave        4094 max        4094 min
Histogram: 1 0 0 0 0 0 0 0 0 0
Neighs:          13177 ave       13177 max       13177 min
Histogram: 1 0 0 0 0 0 0 0 0 0

Total # of neighbors = 13177
Ave neighs/atom = 91.506944
Neighbor list builds = 0
Dangerous builds = 0

Total wall time: 0:00:01
