#Lammps coordinate file for CSL - Axis: [1 1 1]  Angle: (1, 3) -> 59.99999999999999  Plane indices: [0 1 1]  z-position: [4.9336451853244885 14.800935555973464]  Repeats: 1 1 (3, 3) (black, white)  Fixed: 2.228  Boundary equiv: True
144 atoms

2 atom types

0.0 9.920433458271871 xlo xhi
0.0 11.091381789479609 ylo yhi
0.0 19.734580741297954 zlo zhi
4.9602167291359365 8.680379275987894 32.16500718949087 xy xz yz

Atoms

1 1 6.8202980025619135 10.53681270000563 5.339252716211904
2 1 11.780514731697846 10.53681270000563 5.339252716211904
3 1 9.300406367129881 11.64595087895359 6.24486024709932
4 1 11.780514731697847 12.755089057901552 7.150467777986734
5 1 15.087325884455138 14.233939963165499 5.339252716211904
6 1 6.820298002561913 12.755089057901552 7.150467777986734
7 1 4.340189637993946 13.864227236849514 8.05607530887415
8 2 6.8202980025619135 14.973365415797474 8.961682839761563
9 1 4.340189637993946 11.645950878953592 6.244860247099319
10 2 11.780514731697847 14.973365415797474 8.961682839761563
11 2 9.300406367129881 16.082503594745436 9.867290370648979
12 2 11.78051473169785 17.191641773693398 10.772897901536393
13 1 9.300406367129881 13.864227236849514 8.05607530887415
14 1 10.127109155319202 14.233939963165499 5.339252716211904
15 1 7.647000790751236 15.34307814211346 6.244860247099319
16 1 10.127109155319204 16.452216321061425 7.150467777986734
17 1 15.087325884455138 16.45221632106142 7.150467777986734
18 1 12.607217519887172 17.561354500009383 8.05607530887415
19 2 15.08732588445514 18.670492678957345 8.961682839761563
20 1 12.60721751988717 15.34307814211346 6.24486024709932
21 1 13.433920308076495 17.93106722632537 5.339252716211903
22 1 15.914028672644463 19.040205405273333 6.244860247099318
23 2 6.820298002561914 17.191641773693398 10.772897901536393
24 1 4.340189637993947 18.30077995264136 11.678505432423808
25 1 6.820298002561914 19.409918131589322 12.584112963311222
26 2 4.340189637993947 16.082503594745436 9.867290370648979
27 1 11.78051473169785 19.409918131589322 12.584112963311222
28 1 9.300406367129883 20.51905631053728 13.489720494198638
29 1 11.78051473169785 21.628194489485242 14.395328025086053
30 1 9.300406367129883 18.30077995264136 11.678505432423808
31 2 10.127109155319204 18.670492678957345 8.961682839761563
32 2 7.647000790751237 19.779630857905307 9.867290370648979
33 2 10.127109155319204 20.88876903685327 10.772897901536393
34 1 7.647000790751237 17.561354500009386 8.05607530887415
35 1 8.473703578940558 17.93106722632537 5.339252716211903
36 1 8.473703578940558 20.149343584221295 7.150467777986734
37 2 15.08732588445514 20.88876903685327 10.772897901536393
38 1 12.607217519887172 21.99790721580123 11.678505432423808
39 1 15.08732588445514 23.107045394749193 12.584112963311224
40 2 12.607217519887172 19.779630857905307 9.867290370648979
41 1 13.433920308076495 20.149343584221292 7.150467777986734
42 1 10.953811943508526 21.258481763169257 8.05607530887415
43 2 13.433920308076495 22.367619942117216 8.961682839761563
44 1 10.953811943508526 19.040205405273333 6.244860247099319
45 2 15.914028672644463 23.476758121065178 9.867290370648977
46 1 15.914028672644463 21.258481763169254 8.05607530887415
47 1 6.820298002561915 21.628194489485246 14.395328025086052
48 1 4.340189637993948 20.519056310537284 13.489720494198638
49 1 10.127109155319204 23.107045394749193 12.584112963311222
50 1 7.647000790751239 24.21618357369715 13.489720494198638
51 1 10.127109155319205 25.325321752645113 14.395328025086053
52 1 7.647000790751238 21.99790721580123 11.678505432423808
53 2 8.473703578940558 22.367619942117216 8.961682839761563
54 2 8.47370357894056 24.58589630001314 10.772897901536393
55 1 15.08732588445514 25.325321752645113 14.395328025086052
56 1 12.607217519887172 24.21618357369715 13.48972049419864
57 2 13.433920308076495 24.58589630001314 10.772897901536393
58 1 10.953811943508528 25.6950344789611 11.678505432423808
59 1 13.433920308076496 26.804172657909064 12.584112963311224
60 2 10.953811943508526 23.476758121065178 9.867290370648979
61 1 15.914028672644461 27.913310836857022 13.489720494198636
62 1 15.91402867264446 25.695034478961098 11.678505432423808
63 1 8.47370357894056 26.804172657909064 12.58411296331122
64 1 8.47370357894056 29.022449015804984 14.395328025086052
65 1 13.433920308076496 29.022449015804984 14.39532802508605
66 1 10.953811943508528 27.913310836857022 13.489720494198638
67 1 0.0 2.2182763578959226 1.8112150617748293
68 2 2.480108364567968 1.109138178947961 0.9056075308874145
69 2 4.960216729135936 -4.440892098500626e-16 -2.220446049250313e-16
70 2 0.0 0.0 0.0
71 1 0.0 6.654829073687768 4.9336451853244885
72 1 2.480108364567968 3.327414536843884 2.7168225926622442
73 1 2.4801083645679682 5.545690894739806 4.528037654437074
74 1 4.960216729135936 4.436552715791845 3.622430123549659
75 1 0.0 4.436552715791845 3.622430123549659
76 1 1.6534055763786455 5.915403621055794 1.8112150617748293
77 2 7.440325093703903 1.109138178947961 0.9056075308874145
78 1 7.440325093703903 3.3274145368438837 2.7168225926622442
79 1 4.960216729135936 2.218276357895922 1.8112150617748293
80 2 4.133513940946613 4.806265442107832 0.9056075308874141
81 2 6.61362230551458 3.6971272631598704 -6.661338147750939e-16
82 2 1.6534055763786455 3.697127263159871 -4.440892098500626e-16
83 1 1.6534055763786455 10.351956336847639 4.9336451853244885
84 1 7.440325093703903 5.545690894739806 4.528037654437074
85 1 4.960216729135936 6.654829073687768 4.9336451853244885
86 1 4.133513940946613 7.024541800003755 2.7168225926622434
87 1 4.133513940946613 9.242818157899677 4.528037654437074
88 1 6.61362230551458 8.133679978951715 3.622430123549659
89 1 1.6534055763786455 8.133679978951717 3.622430123549659
90 1 3.3068111527572905 9.612530884215664 1.8112150617748288
91 2 9.093730670082548 4.806265442107832 0.9056075308874141
92 1 9.093730670082547 7.024541800003755 2.7168225926622434
93 1 6.61362230551458 5.915403621055793 1.8112150617748288
94 2 5.7869195173252574 8.503392705267704 0.9056075308874136
95 2 8.267027881893226 7.394254526319742 -9.992007221626409e-16
96 2 3.3068111527572905 7.394254526319742 -8.881784197001252e-16
97 1 3.306811152757291 14.04908360000751 4.933645185324488
98 1 9.093730670082547 9.242818157899677 4.528037654437074
99 1 6.613622305514581 10.351956336847639 4.9336451853244885
100 1 5.786919517325258 10.721669063163626 2.7168225926622434
101 1 5.786919517325258 12.939945421059548 4.528037654437073
102 1 8.267027881893226 11.830807242111586 3.622430123549658
103 1 3.306811152757291 11.830807242111588 3.622430123549658
104 2 10.747136246461192 8.503392705267704 0.9056075308874136
105 1 10.747136246461192 10.721669063163626 2.7168225926622434
106 1 8.267027881893226 9.612530884215664 1.8112150617748284
107 1 8.68037927598789 25.51017811580311 14.800935555973467
108 1 10.747136246461192 12.939945421059548 4.528037654437073
109 1 8.267027881893226 14.04908360000751 4.933645185324488
110 1 8.68037927598789 29.946730831594955 17.923365679523123
111 1 11.160487640555857 26.619316294751073 15.20654308686088
112 1 11.160487640555859 28.837592652646997 17.01775814863571
113 1 13.640596005123825 27.728454473699035 16.112150617748295
114 1 8.68037927598789 27.728454473699035 16.112150617748295
115 1 10.333784852366534 29.20730537896298 14.800935555973464
116 1 16.120704369691794 26.619316294751073 15.20654308686088
117 1 13.640596005123825 25.51017811580311 14.800935555973464
118 2 11.160487640555859 31.055869010542917 18.82897321041054
119 1 10.333784852366536 33.643858094754826 17.923365679523123
120 1 16.120704369691794 28.837592652646993 17.017758148635707
121 2 16.120704369691794 31.055869010542917 18.82897321041054
122 1 13.640596005123825 29.946730831594955 17.923365679523126
123 1 12.813893216934503 30.316443557910944 15.20654308686088
124 1 12.813893216934504 32.53471991580687 17.01775814863571
125 1 15.29400158150247 31.425581736858906 16.112150617748295
126 1 10.333784852366536 31.425581736858906 16.112150617748295
127 1 11.98719042874518 32.90443264212285 14.800935555973464
128 1 17.77410994607044 30.316443557910944 15.20654308686088
129 1 15.29400158150247 29.20730537896298 14.800935555973464
130 2 12.813893216934504 34.752996273702784 18.82897321041054
131 1 11.987190428745182 37.3409853579147 17.923365679523123
132 1 17.77410994607044 32.53471991580686 17.017758148635707
133 2 17.77410994607044 34.752996273702784 18.82897321041054
134 1 15.29400158150247 33.643858094754826 17.923365679523126
135 1 14.467298793313148 34.013570821070815 15.20654308686088
136 1 14.46729879331315 36.23184717896674 17.01775814863571
137 1 16.947407157881116 35.12270900001877 16.112150617748295
138 1 11.987190428745182 35.12270900001877 16.112150617748295
139 1 19.427515522449085 34.013570821070815 15.20654308686088
140 1 16.947407157881116 32.90443264212285 14.800935555973464
141 2 14.46729879331315 38.45012353686266 18.82897321041054
142 1 19.427515522449085 36.23184717896673 17.017758148635707
143 2 19.427515522449085 38.45012353686266 18.82897321041054
144 1 16.947407157881116 37.3409853579147 17.923365679523126
