ITEM: TIMESTEP
0
ITEM: NUMBER OF ATOMS
144
ITEM: BOX BOUNDS xy xz yz pp pp pp
0.0000000000000000e+00 3.5341544195093547e+01 4.9602167291359365e+00
0.0000000000000000e+00 4.1869966255285533e+01 2.0460894007685738e+01
0.0000000000000000e+00 1.9734580741297954e+01 3.0778584465805920e+01
ITEM: ATOMS id type x y z c_peatom
70 2 0 0 0 -3.31502
82 2 1.65341 3.69713 0 -3.30728
69 2 4.96022 0 0 -3.31502
81 2 6.61362 3.69713 0 -3.30728
80 2 4.13351 4.80627 0.905608 -3.34623
86 1 4.13351 7.02454 2.71682 -3.30259
88 1 6.61362 8.13368 3.62243 -3.3668
93 1 6.61362 5.9154 1.81122 -3.35405
94 2 5.78692 8.50339 0.905608 -3.32683
95 2 8.26703 7.39425 0 -3.30728
76 1 11.5738 5.9154 1.81122 -3.35405
89 1 11.5738 8.13368 3.62243 -3.3668
91 2 9.09373 4.80627 0.905608 -3.34623
92 1 9.09373 7.02454 2.71682 -3.30259
96 2 13.2272 7.39425 0 -3.30728
98 1 9.09373 9.24282 4.52804 -2.40314
104 2 10.7471 8.50339 0.905608 -3.32683
87 1 14.0539 9.24282 4.52804 -2.40314
68 2 7.44033 12.2005 0.905608 -3.34346
100 1 5.78692 10.7217 2.71682 -3.29639
102 1 8.26703 11.8308 3.62243 -3.37062
106 1 8.26703 9.61253 1.81122 -3.3476
77 2 12.4005 12.2005 0.905608 -3.34346
79 1 9.92043 13.3097 1.81122 -3.34005
90 1 13.2272 9.61253 1.81122 -3.3476
103 1 13.2272 11.8308 3.62243 -3.37062
105 1 10.7471 10.7217 2.71682 -3.29639
108 1 10.7471 12.9399 4.52804 0.188599
67 1 14.8807 13.3097 1.81122 -3.34005
101 1 15.7074 12.9399 4.52804 0.188599
72 1 7.44033 14.4188 2.71682 -3.29389
109 1 8.26703 14.0491 4.93365 -1.36892
74 1 9.92043 15.5279 3.62243 -3.31871
78 1 12.4005 14.4188 2.71682 -3.29389
84 1 12.4005 16.6371 4.52804 -3.15283
97 1 13.2272 14.0491 4.93365 -1.36892
73 1 17.3608 16.6371 4.52804 -3.15283
75 1 14.8807 15.5279 3.62243 -3.31871
2 1 7.75034 9.8436 5.33925 -0.11381
99 1 6.61362 10.352 4.93365 -0.414527
1 1 12.7106 9.8436 5.33925 -0.11381
5 1 11.0571 13.5407 5.33925 0.345228
6 1 12.7106 12.0619 7.15047 -3.47538
7 1 10.2304 13.171 8.05608 -3.34971
9 1 10.2304 10.9527 6.24486 -2.8878
83 1 11.5738 10.352 4.93365 -0.414527
3 1 15.1907 10.9527 6.24486 -2.8878
4 1 17.6708 12.0619 7.15047 -3.47538
13 1 15.1907 13.171 8.05608 -3.34971
14 1 16.0174 13.5407 5.33925 0.345228
8 2 12.7106 14.2802 8.96168 -3.33027
17 1 11.0571 15.759 7.15047 -3.46413
22 1 11.8839 18.347 6.24486 -3.28733
85 1 9.92043 17.7462 4.93365 2.31957
10 2 17.6708 14.2802 8.96168 -3.33027
15 1 13.5373 14.6499 6.24486 -1.8549
16 1 16.0174 15.759 7.15047 -3.46413
31 2 16.0174 17.9773 8.96168 -3.32167
34 1 13.5373 16.8681 8.05608 -3.37181
35 1 14.364 17.2379 5.33925 2.27755
44 1 16.8441 18.347 6.24486 -3.28733
71 1 14.8807 17.7462 4.93365 2.31957
18 1 18.4975 16.8681 8.05608 -3.37181
19 2 20.9776 17.9773 8.96168 -3.32167
20 1 18.4975 14.6499 6.24486 -1.8549
21 1 19.3242 17.2379 5.33925 2.27755
36 1 14.364 19.4561 7.15047 -3.45427
42 1 16.8441 20.5653 8.05608 -3.38555
53 2 14.364 21.6744 8.96168 -3.32183
41 1 19.3242 19.4561 7.15047 -3.45427
43 2 19.3242 21.6744 8.96168 -3.32183
46 1 21.8043 20.5653 8.05608 -3.38555
11 2 15.1907 15.3893 9.86729 -3.29782
26 2 20.1509 15.3893 9.86729 -3.29782
32 2 13.5373 19.0864 9.86729 -3.30448
33 2 16.0174 20.1956 10.7729 -3.32183
49 1 16.0174 22.4138 12.5841 -3.45427
52 1 13.5373 21.3047 11.6785 -3.38555
60 2 16.8441 22.7835 9.86729 -3.30448
37 2 20.9776 20.1956 10.7729 -3.32183
38 1 18.4975 21.3047 11.6785 -3.38555
39 1 20.9776 22.4138 12.5841 -3.45427
40 2 18.4975 19.0864 9.86729 -3.30448
45 2 21.8043 22.7835 9.86729 -3.30448
51 1 16.0174 24.6321 14.3953 2.27755
54 2 14.364 23.8927 10.7729 -3.32167
58 1 16.8441 25.0018 11.6785 -3.37181
66 1 16.8441 27.2201 13.4897 -1.8549
23 2 17.6708 27.5898 10.7729 -3.33027
55 1 20.9776 24.6321 14.3953 2.27755
56 1 18.4975 23.523 13.4897 -3.28733
57 2 19.3242 23.8927 10.7729 -3.32167
59 1 19.3242 26.111 12.5841 -3.46413
61 1 21.8043 27.2201 13.4897 -1.8549
62 1 21.8043 25.0018 11.6785 -3.37181
12 2 22.631 27.5898 10.7729 -3.33027
50 1 23.4577 23.523 13.4897 -3.28733
63 1 24.2844 26.111 12.5841 -3.46413
115 1 22.1143 27.8209 14.8009 -1.36892
117 1 25.4211 24.1238 14.8009 2.31957
129 1 27.0745 27.8209 14.8009 -1.36892
25 1 17.6708 29.8081 12.5841 -3.47538
28 1 20.1509 30.9172 13.4897 -2.8878
30 1 20.1509 28.699 11.6785 -3.34971
65 1 19.3242 28.3292 14.3953 0.345228
24 1 25.1111 28.699 11.6785 -3.34971
27 1 22.631 29.8081 12.5841 -3.47538
29 1 22.631 32.0264 14.3953 -0.11381
48 1 25.1111 30.9172 13.4897 -2.8878
64 1 24.2844 28.3292 14.3953 0.345228
127 1 23.7677 31.518 14.8009 -0.414527
47 1 27.5912 32.0264 14.3953 -0.11381
140 1 28.7279 31.518 14.8009 -0.414527
107 1 20.4609 24.1238 14.8009 2.31957
114 1 20.4609 26.342 16.1122 -3.31871
116 1 17.9808 25.2329 15.2065 -3.15283
111 1 22.941 25.2329 15.2065 -3.15283
112 1 22.941 27.4512 17.0178 -3.29389
113 1 25.4211 26.342 16.1122 -3.31871
120 1 27.9012 27.4512 17.0178 -3.29389
110 1 20.4609 28.5603 17.9234 -3.34005
128 1 19.6342 28.93 15.2065 0.188599
118 2 22.941 29.6694 18.829 -3.34346
119 1 22.1143 32.2574 17.9234 -3.3476
122 1 25.4211 28.5603 17.9234 -3.34005
123 1 24.5944 28.93 15.2065 0.188599
124 1 24.5944 31.1483 17.0178 -3.29639
126 1 22.1143 30.0392 16.1122 -3.37062
121 2 27.9012 29.6694 18.829 -3.34346
125 1 27.0745 30.0392 16.1122 -3.37062
132 1 29.5546 31.1483 17.0178 -3.29639
134 1 27.0745 32.2574 17.9234 -3.3476
139 1 21.2876 32.6271 15.2065 -2.40314
130 2 24.5944 33.3666 18.829 -3.32683
131 1 23.7677 35.9546 17.9234 -3.35405
135 1 26.2478 32.6271 15.2065 -2.40314
136 1 26.2478 34.8454 17.0178 -3.30259
138 1 23.7677 33.7363 16.1122 -3.3668
141 2 26.2478 37.0637 18.829 -3.34623
133 2 29.5546 33.3666 18.829 -3.32683
137 1 28.7279 33.7363 16.1122 -3.3668
144 1 28.7279 35.9546 17.9234 -3.35405
142 1 31.208 34.8454 17.0178 -3.30259
143 2 31.208 37.0637 18.829 -3.34623
