LAMMPS (29 Aug 2024 - Update 2)
#---------------------------------------------------------------------------------------------------
# Initilise important features of simulation
#---------------------------------------------------------------------------------------------------
units 		metal	# Use metals units (Ang, ps, eV, bar, etc.)
dimension 	3		# Run the simulation in three dimensions
boundary 	p p p	# Use periodic boundaries in all three dimensions
atom_style 	atomic	#
#box tilt large		# Allow larger than normal tilt factors

variable T_start equal 600
variable T_end equal 200
variable tstep equal 0.002
timestep ${tstep}
timestep 0.002

read_data   lammps.txt	# Read in atom coordinates from a file
Reading data file ...
  triclinic box = (0 0 0) to (9.9204335 11.091382 21.734581) with tilt (4.9602167 17.360759 26.619316)
WARNING: Triclinic box skew is large. LAMMPS will run inefficiently. (src/domain.cpp:221)
  1 by 1 by 1 MPI processor grid
  reading atoms ...
  144 atoms
  read_data CPU = 0.001 seconds

#---------------------------------------------------------------------------------------------------
# Define how the forces between the atoms will be modelled
#---------------------------------------------------------------------------------------------------
pair_style eam/alloy
pair_coeff * * Zope-Ti-Al-2003.eam.alloy.txt Al Al

#---------------------------------------------------------------------------------------------------
# Set behaviour of simulation
#---------------------------------------------------------------------------------------------------
group g_fixed type 2
36 atoms in group g_fixed
group g_other type 1
108 atoms in group g_other
fix f_freeze g_fixed setforce 0.0 0.0 0.0 	# Hold atoms of type 2 fixed in place
#fix f_constrain g_other setforce 0.0 0.0 NULL 	# All atoms of type 1 to move only in z direction

#---------------------------------------------------------------------------------------------------
# Specify what information to write out
#---------------------------------------------------------------------------------------------------
thermo_style custom step atoms temp pe ke etotal fmax
thermo_modify format 6 %20.10f
thermo 1000

#compute statom all stress/atom NULL
compute peatom all pe/atom
dump 1 all custom 100000 dump.* id type x y z c_peatom
dump_modify 1 first yes


#---------------------------------------------------------------------------------------------------
# Initial relaxation
#---------------------------------------------------------------------------------------------------
velocity all set 0.0 0.0 0.0

min_style 	cg
min_modify dmax 0.1
minimize 	0.0 1.0e-6 10000 100000
Neighbor list info ...
  update: every = 1 steps, delay = 0 steps, check = yes
  max neighbors/atom: 2000, page size: 100000
  master list distance cutoff = 8.724884
  ghost atom cutoff = 8.724884
  binsize = 4.362442, bins = 8 9 5
  1 neighbor lists, perpetual/occasional/extra = 1 0 0
  (1) pair eam/alloy, perpetual
      attributes: half, newton on
      pair build: half/bin/atomonly/newton/tri
      stencil: half/bin/3d/tri
      bin: standard
Per MPI rank memory allocation (min/avg/max) = 4.654 | 4.654 | 4.654 Mbytes
   Step        Atoms         Temp          PotEng         KinEng         TotEng          Fmax     
         0         144   0             -461.34969      0                  -461.3496877210  4.449126     
        54         144   0             -477.28101      0                  -477.2810069441  1.1882297e-07
Loop time of 0.00903408 on 1 procs for 54 steps with 144 atoms

99.0% CPU use with 1 MPI tasks x no OpenMP threads

Minimization stats:
  Stopping criterion = force tolerance
  Energy initial, next-to-last, final = 
     -461.349687720993   -477.28100694405  -477.281006944051
  Force two-norm initial, final = 19.831347 8.0491438e-07
  Force max component initial, final = 4.449126 1.1882297e-07
  Final line search alpha, max atom move = 1 1.1882297e-07
  Iterations, force evaluations = 54 100

MPI task timing breakdown:
Section |  min time  |  avg time  |  max time  |%varavg| %total
---------------------------------------------------------------
Pair    | 0.0082426  | 0.0082426  | 0.0082426  |   0.0 | 91.24
Neigh   | 0          | 0          | 0          |   0.0 |  0.00
Comm    | 0.0003945  | 0.0003945  | 0.0003945  |   0.0 |  4.37
Output  | 0          | 0          | 0          |   0.0 |  0.00
Modify  | 1.4039e-05 | 1.4039e-05 | 1.4039e-05 |   0.0 |  0.16
Other   |            | 0.0003829  |            |       |  4.24

Nlocal:            144 ave         144 max         144 min
Histogram: 1 0 0 0 0 0 0 0 0 0
Nghost:           2406 ave        2406 max        2406 min
Histogram: 1 0 0 0 0 0 0 0 0 0
Neighs:          12396 ave       12396 max       12396 min
Histogram: 1 0 0 0 0 0 0 0 0 0

Total # of neighbors = 12396
Ave neighs/atom = 86.083333
Neighbor list builds = 0
Dangerous builds = 0
#---------------------------------------------------------------------------------------------------
# Anneal boundary structures
#---------------------------------------------------------------------------------------------------
reset_timestep 100000
fix md g_other nvt temp ${T_start} ${T_end} $(100.0*v_tstep)
fix md g_other nvt temp 600 ${T_end} $(100.0*v_tstep)
fix md g_other nvt temp 600 200 $(100.0*v_tstep)
fix md g_other nvt temp 600 200 0.2000000000000000111

velocity all create ${T_start} 4928459 rot yes mom yes dist gaussian
velocity all create 600 4928459 rot yes mom yes dist gaussian
run 10000
Per MPI rank memory allocation (min/avg/max) = 4.91 | 4.91 | 4.91 Mbytes
   Step        Atoms         Temp          PotEng         KinEng         TotEng          Fmax     
    100000         144   600           -477.28101      11.09052           -466.1904865031  1.1882299e-07
    101000         144   586.83314     -470.10668      10.847142          -459.2595401519  1.2606598    
    102000         144   594.31914     -469.68245      10.985514          -458.6969371690  1.2809221    
    103000         144   521.47862     -470.87979      9.6391154          -461.2406781901  1.0826431    
    104000         144   526.43213     -471.14424      9.7306772          -461.4135660202  1.5284807    
    105000         144   482.87776     -472.35196      8.9256095          -463.4263490256  1.3400785    
    106000         144   408.45718     -472.53616      7.5500046          -464.9861510718  1.0860121    
    107000         144   414.94632     -472.79043      7.6699511          -465.1204779149  1.1668507    
    108000         144   408.35462     -474.29919      7.5481087          -466.7510800529  1.0044009    
    109000         144   363.79869     -474.29967      6.7245281          -467.5751371309  0.83943808   
    110000         144   332.10646     -475.08133      6.1387225          -468.9426118781  1.1833954    
Loop time of 0.861081 on 1 procs for 10000 steps with 144 atoms

Performance: 2006.781 ns/day, 0.012 hours/ns, 11613.314 timesteps/s, 1.672 Matom-step/s
99.7% CPU use with 1 MPI tasks x no OpenMP threads

MPI task timing breakdown:
Section |  min time  |  avg time  |  max time  |%varavg| %total
---------------------------------------------------------------
Pair    | 0.78746    | 0.78746    | 0.78746    |   0.0 | 91.45
Neigh   | 0.011119   | 0.011119   | 0.011119   |   0.0 |  1.29
Comm    | 0.041153   | 0.041153   | 0.041153   |   0.0 |  4.78
Output  | 4.2875e-05 | 4.2875e-05 | 4.2875e-05 |   0.0 |  0.00
Modify  | 0.010536   | 0.010536   | 0.010536   |   0.0 |  1.22
Other   |            | 0.01077    |            |       |  1.25

Nlocal:            144 ave         144 max         144 min
Histogram: 1 0 0 0 0 0 0 0 0 0
Nghost:           2387 ave        2387 max        2387 min
Histogram: 1 0 0 0 0 0 0 0 0 0
Neighs:          12099 ave       12099 max       12099 min
Histogram: 1 0 0 0 0 0 0 0 0 0

Total # of neighbors = 12099
Ave neighs/atom = 84.020833
Neighbor list builds = 23
Dangerous builds = 0
unfix md

#---------------------------------------------------------------------------------------------------
# Final relaxation
#---------------------------------------------------------------------------------------------------
velocity all set 0.0 0.0 0.0

min_style 	cg
min_modify dmax 0.1
minimize 	0.0 1.0e-6 10000 100000
Per MPI rank memory allocation (min/avg/max) = 6.035 | 6.035 | 6.035 Mbytes
   Step        Atoms         Temp          PotEng         KinEng         TotEng          Fmax     
    110000         144   0             -475.08133      0                  -475.0813343867  1.1833954    
    110050         144   0             -477.9422       0                  -477.9422043747  1.2372835e-07
Loop time of 0.009542 on 1 procs for 50 steps with 144 atoms

98.1% CPU use with 1 MPI tasks x no OpenMP threads

Minimization stats:
  Stopping criterion = force tolerance
  Energy initial, next-to-last, final = 
     -475.081334386664  -477.942204374704  -477.942204374702
  Force two-norm initial, final = 5.1679758 7.9380122e-07
  Force max component initial, final = 1.1833954 1.2372835e-07
  Final line search alpha, max atom move = 1 1.2372835e-07
  Iterations, force evaluations = 50 98

MPI task timing breakdown:
Section |  min time  |  avg time  |  max time  |%varavg| %total
---------------------------------------------------------------
Pair    | 0.0086365  | 0.0086365  | 0.0086365  |   0.0 | 90.51
Neigh   | 0          | 0          | 0          |   0.0 |  0.00
Comm    | 0.00040534 | 0.00040534 | 0.00040534 |   0.0 |  4.25
Output  | 0          | 0          | 0          |   0.0 |  0.00
Modify  | 1.4291e-05 | 1.4291e-05 | 1.4291e-05 |   0.0 |  0.15
Other   |            | 0.0004859  |            |       |  5.09

Nlocal:            144 ave         144 max         144 min
Histogram: 1 0 0 0 0 0 0 0 0 0
Nghost:           2406 ave        2406 max        2406 min
Histogram: 1 0 0 0 0 0 0 0 0 0
Neighs:          12096 ave       12096 max       12096 min
Histogram: 1 0 0 0 0 0 0 0 0 0

Total # of neighbors = 12096
Ave neighs/atom = 84
Neighbor list builds = 0
Dangerous builds = 0

Total wall time: 0:00:00
