ITEM: TIMESTEP
0
ITEM: NUMBER OF ATOMS
144
ITEM: BOX BOUNDS xy xz yz pp pp pp
0.0000000000000000e+00 3.9681733833087492e+01 4.9602167291359365e+00
0.0000000000000000e+00 5.9893461663189896e+01 2.4801083645679682e+01
0.0000000000000000e+00 2.0734580741297954e+01 4.8802079873710291e+01
ITEM: ATOMS id type x y z c_peatom
70 2 0 0 0 -3.344
82 2 1.65341 3.69713 0 -3.34082
69 2 4.96022 5.22617e-16 0 -3.344
81 2 6.61362 3.69713 0 -3.34082
80 2 4.13351 4.80627 0.905608 -3.34406
86 1 4.13351 7.02454 2.71682 -3.35304
93 1 6.61362 5.9154 1.81122 -3.3504
94 2 5.78692 8.50339 0.905608 -3.3584
95 2 8.26703 7.39425 0 -3.34082
76 1 11.5738 5.9154 1.81122 -3.3504
91 2 9.09373 4.80627 0.905608 -3.34406
92 1 9.09373 7.02454 2.71682 -3.35304
104 2 10.7471 8.50339 0.905608 -3.3584
96 2 13.2272 7.39425 0 -3.34082
68 2 7.44033 12.2005 0.905608 -3.35377
100 1 5.78692 10.7217 2.71682 -3.37147
102 1 8.26703 11.8308 3.62243 -3.13881
106 1 8.26703 9.61253 1.81122 -3.36465
77 2 12.4005 12.2005 0.905608 -3.35377
79 1 9.92043 13.3097 1.81122 -3.34053
103 1 13.2272 11.8308 3.62243 -3.13881
105 1 10.7471 10.7217 2.71682 -3.37147
108 1 10.7471 12.9399 4.52804 -3.17751
67 1 14.8807 13.3097 1.81122 -3.34053
90 1 13.2272 9.61253 1.81122 -3.36465
101 1 15.7074 12.9399 4.52804 -3.17751
72 1 7.44033 14.4188 2.71682 -3.373
109 1 8.26703 14.0491 5.18365 -2.82074
74 1 9.92043 15.5279 3.62243 -3.40511
78 1 12.4005 14.4188 2.71682 -3.373
84 1 12.4005 16.6371 4.52804 -3.07728
73 1 17.3608 16.6371 4.52804 -3.07728
75 1 14.8807 15.5279 3.62243 -3.40511
97 1 13.2272 14.0491 5.18365 -2.82074
88 1 11.5738 19.2251 3.62243 -3.38064
89 1 16.5341 19.2251 3.62243 -3.38064
98 1 14.0539 20.3342 4.52804 -3.06703
87 1 19.0142 20.3342 4.52804 -3.06703
22 1 9.09373 16.2674 6.74486 -3.22096
35 1 11.5738 15.1582 5.83925 -2.67356
85 1 9.92043 17.7462 5.18365 -0.756581
21 1 16.5341 15.1582 5.83925 -2.67356
44 1 14.0539 16.2674 6.74486 -3.22096
71 1 14.8807 17.7462 5.18365 -0.756581
2 1 9.92043 18.8553 5.83925 -0.709391
7 1 12.4005 22.1828 8.55608 -3.37261
9 1 12.4005 19.9645 6.74486 -3.2072
99 1 11.5738 21.4433 5.18365 -2.7456
1 1 14.8807 18.8553 5.83925 -0.709391
3 1 17.3608 19.9645 6.74486 -3.2072
5 1 13.2272 22.5525 5.83925 -2.7481
6 1 14.8807 21.0736 7.65047 -3.43417
13 1 17.3608 22.1828 8.55608 -3.37261
83 1 16.5341 21.4433 5.18365 -2.7456
4 1 19.8409 21.0736 7.65047 -3.43417
14 1 18.1875 22.5525 5.83925 -2.7481
17 1 13.2272 24.7708 7.65047 -3.31464
8 2 14.8807 23.2919 9.46168 -3.33103
15 1 15.7074 23.6616 6.74486 -3.17782
34 1 15.7074 25.8799 8.55608 -3.38616
10 2 19.8409 23.2919 9.46168 -3.33103
16 1 18.1875 24.7708 7.65047 -3.31464
18 1 20.6676 25.8799 8.55608 -3.38616
20 1 20.6676 23.6616 6.74486 -3.17782
31 2 18.1875 26.989 9.46168 -3.34897
19 2 23.1477 26.989 9.46168 -3.34897
36 1 16.5341 28.4679 7.65047 -3.40529
53 2 16.5341 30.6862 9.46168 -3.33602
41 1 21.4943 28.4679 7.65047 -3.40529
42 1 19.0142 29.577 8.55608 -3.3521
43 2 21.4943 30.6862 9.46168 -3.33602
46 1 23.9744 29.577 8.55608 -3.3521
26 2 12.4005 24.401 10.3673 -3.33796
11 2 17.3608 24.401 10.3673 -3.33796
32 2 15.7074 28.0982 10.3673 -3.33923
52 1 15.7074 30.3164 12.1785 -3.3521
33 2 18.1875 29.2073 11.2729 -3.33602
38 1 20.6676 30.3164 12.1785 -3.3521
40 2 20.6676 28.0982 10.3673 -3.33923
49 1 18.1875 31.4256 13.0841 -3.40529
60 2 19.0142 31.7953 10.3673 -3.33923
37 2 23.1477 29.2073 11.2729 -3.33602
39 1 23.1477 31.4256 13.0841 -3.40529
45 2 23.9744 31.7953 10.3673 -3.33923
54 2 16.5341 32.9044 11.2729 -3.34897
23 2 19.8409 36.6016 11.2729 -3.33103
57 2 21.4943 32.9044 11.2729 -3.34897
58 1 19.0142 34.0136 12.1785 -3.38616
59 1 21.4943 35.1227 13.0841 -3.31464
66 1 19.0142 36.2318 13.9897 -3.17782
12 2 24.8011 36.6016 11.2729 -3.33103
61 1 23.9744 36.2318 13.9897 -3.17782
62 1 23.9744 34.0136 12.1785 -3.38616
63 1 26.4545 35.1227 13.0841 -3.31464
25 1 19.8409 38.8198 13.0841 -3.43417
65 1 21.4943 37.341 14.8953 -2.7481
27 1 24.8011 38.8198 13.0841 -3.43417
28 1 22.321 39.929 13.9897 -3.2072
29 1 24.8011 41.0381 14.8953 -0.709391
30 1 22.321 37.7107 12.1785 -3.37261
24 1 27.2812 37.7107 12.1785 -3.37261
47 1 29.7613 41.0381 14.8953 -0.709391
48 1 27.2812 39.929 13.9897 -3.2072
64 1 26.4545 37.341 14.8953 -2.7481
51 1 23.1477 44.7352 14.8953 -2.67356
56 1 25.6278 43.6261 13.9897 -3.22096
50 1 30.588 43.6261 13.9897 -3.22096
55 1 28.1079 44.7352 14.8953 -2.67356
139 1 20.6676 39.5593 16.2065 -3.06703
127 1 23.1477 38.4501 15.5509 -2.7456
135 1 25.6278 39.5593 16.2065 -3.06703
138 1 23.1477 40.6684 17.1122 -3.38064
137 1 28.1079 40.6684 17.1122 -3.38064
140 1 28.1079 38.4501 15.5509 -2.7456
107 1 24.8011 42.1473 15.5509 -0.756581
114 1 24.8011 44.3655 17.1122 -3.40511
116 1 22.321 43.2564 16.2065 -3.07728
111 1 27.2812 43.2564 16.2065 -3.07728
112 1 27.2812 45.4747 18.0178 -3.373
113 1 29.7613 44.3655 17.1122 -3.40511
115 1 26.4545 45.8444 15.5509 -2.82074
117 1 29.7613 42.1473 15.5509 -0.756581
120 1 32.2414 45.4747 18.0178 -3.373
129 1 31.4147 45.8444 15.5509 -2.82074
110 1 24.8011 46.5838 18.9234 -3.34053
128 1 23.9744 46.9535 16.2065 -3.17751
118 2 27.2812 47.6929 19.829 -3.35377
119 1 26.4545 50.2809 18.9234 -3.36465
122 1 29.7613 46.5838 18.9234 -3.34053
123 1 28.9346 46.9535 16.2065 -3.17751
124 1 28.9346 49.1718 18.0178 -3.37147
126 1 26.4545 48.0627 17.1122 -3.13881
121 2 32.2414 47.6929 19.829 -3.35377
125 1 31.4147 48.0627 17.1122 -3.13881
132 1 33.8948 49.1718 18.0178 -3.37147
134 1 31.4147 50.2809 18.9234 -3.36465
130 2 28.9346 51.3901 19.829 -3.3584
131 1 28.1079 53.9781 18.9234 -3.3504
136 1 30.588 52.8689 18.0178 -3.35304
141 2 30.588 55.0872 19.829 -3.34406
133 2 33.8948 51.3901 19.829 -3.3584
144 1 33.0681 53.9781 18.9234 -3.3504
142 1 35.5482 52.8689 18.0178 -3.35304
143 2 35.5482 55.0872 19.829 -3.34406
