ITEM: TIMESTEP
100000
ITEM: NUMBER OF ATOMS
144
ITEM: BOX BOUNDS xy xz yz pp pp pp
0.0000000000000000e+00 2.1080921098827734e+01 4.9602167291359365e+00
0.0000000000000000e+00 4.8802079873710284e+01 6.2002709114199250e+00
0.0000000000000000e+00 2.2734580741297954e+01 3.7710698084230678e+01
ITEM: ATOMS id type x y z c_peatom
69 2 4.96022 2.76235e-16 0 -3.37918
70 2 0 0 0 -3.37918
81 2 6.61362 3.69713 0 -3.35312
82 2 11.5738 3.69713 0 -3.35312
80 2 4.13351 4.80627 0.905608 -3.36752
86 1 4.17999 7.109 2.70141 -3.373
88 1 6.77183 8.31983 3.57079 -3.31355
91 2 9.09373 4.80627 0.905608 -3.36752
92 1 9.14021 7.109 2.70141 -3.373
93 1 6.63444 5.96984 1.81552 -3.37393
94 2 5.78692 8.50339 0.905608 -3.34962
95 2 8.26703 7.39425 0 -3.35312
76 1 11.5947 5.96984 1.81552 -3.37393
89 1 11.732 8.31983 3.57079 -3.31355
96 2 13.2272 7.39425 0 -3.35312
104 2 10.7471 8.50339 0.905608 -3.34962
68 2 7.44033 12.2005 0.905608 -3.37285
100 1 5.865 10.8011 2.7031 -3.32767
101 1 5.7821 13.0326 4.31697 -3.1604
102 1 8.31198 11.9154 3.54559 -3.32562
106 1 8.33205 9.66267 1.8155 -3.35972
77 2 12.4005 12.2005 0.905608 -3.37285
90 1 13.2923 9.66267 1.8155 -3.35972
103 1 13.2722 11.9154 3.54559 -3.32562
105 1 10.8252 10.8011 2.7031 -3.32767
108 1 10.7423 13.0326 4.31697 -3.1604
72 1 7.45012 14.5095 2.68297 -3.35807
74 1 9.94737 15.6591 3.67333 -3.29893
79 1 9.91662 13.3718 1.75411 -3.35871
67 1 14.8768 13.3718 1.75411 -3.35871
75 1 14.9076 15.6591 3.67333 -3.29893
78 1 12.4103 14.5095 2.68297 -3.35807
87 1 4.43688 9.59084 4.62553 -3.23748
98 1 9.3971 9.59084 4.62553 -3.23748
99 1 6.96319 10.899 5.73935 -3.21989
83 1 11.9234 10.899 5.73935 -3.21989
9 1 3.12708 14.2648 7.96849 -3.12925
73 1 7.47891 16.7659 4.55195 -3.28512
1 1 5.64471 13.3169 6.91879 -3.17936
3 1 8.0873 14.2648 7.96849 -3.12925
6 1 5.61043 15.4661 8.68935 -3.30052
14 1 8.65963 16.7189 7.01373 -3.1601
109 1 8.24661 14.0656 5.34208 -3.17178
84 1 12.4391 16.7659 4.55195 -3.28512
2 1 10.6049 13.3169 6.91879 -3.17936
4 1 10.5706 15.4661 8.68935 -3.30052
5 1 13.6198 16.7189 7.01373 -3.1601
97 1 13.2068 14.0656 5.34208 -3.17178
15 1 6.22731 17.9537 7.84252 -3.18767
16 1 8.7911 19.1811 8.66068 -3.31966
35 1 7.64727 19.3206 6.15375 -3.1387
44 1 9.56337 21.6843 7.46403 -3.23214
85 1 10.0767 18.0787 5.28777 -3.1779
17 1 13.7513 19.1811 8.66068 -3.31966
20 1 11.1875 17.9537 7.84252 -3.18767
21 1 12.6075 19.3206 6.15375 -3.1387
22 1 14.5236 21.6843 7.46403 -3.23214
71 1 15.0369 18.0787 5.28777 -3.1779
36 1 7.18827 22.7709 8.60054 -3.29833
41 1 12.1485 22.7709 8.60054 -3.29833
7 1 3.10087 16.6142 9.64134 -3.36411
13 1 8.06109 16.6142 9.64134 -3.36411
26 2 3.10014 18.8553 11.3673 -3.37548
8 2 5.58024 17.7462 10.4617 -3.36586
10 2 10.5405 17.7462 10.4617 -3.36586
31 2 8.88705 21.4433 10.4617 -3.33874
34 1 6.33014 20.3014 9.49694 -3.30442
11 2 8.06035 18.8553 11.3673 -3.37548
18 1 11.2904 20.3014 9.49694 -3.30442
19 2 13.8473 21.4433 10.4617 -3.33874
32 2 6.40695 22.5525 11.3673 -3.38827
33 2 8.88705 23.6616 12.2729 -3.35678
42 1 9.71434 23.9229 9.56586 -3.36104
52 1 6.40637 24.8792 13.1687 -3.36104
53 2 7.23365 25.1405 10.4617 -3.35678
60 2 9.71376 26.2496 11.3673 -3.38827
37 2 13.8473 23.6616 12.2729 -3.35678
38 1 11.3666 24.8792 13.1687 -3.36104
40 2 11.3672 22.5525 11.3673 -3.38827
43 2 12.1939 25.1405 10.4617 -3.35678
45 2 14.674 26.2496 11.3673 -3.38827
46 1 14.6746 23.9229 9.56586 -3.36104
54 2 7.23365 27.3587 12.2729 -3.33874
58 1 9.79056 28.5006 13.2376 -3.30442
57 2 12.1939 27.3587 12.2729 -3.33874
62 1 14.7508 28.5006 13.2376 -3.30442
12 2 15.5007 31.0559 12.2729 -3.36586
23 2 10.5405 31.0559 12.2729 -3.36586
30 1 13.0198 32.1879 13.0932 -3.36411
24 1 17.98 32.1879 13.0932 -3.36411
49 1 8.93244 26.0312 14.134 -3.29833
39 1 13.8927 26.0312 14.134 -3.29833
50 1 6.55733 27.1178 15.2706 -3.23214
51 1 8.47343 29.4815 16.5808 -3.1387
63 1 7.32961 29.621 14.0739 -3.31966
66 1 9.89339 30.8484 14.8921 -3.18767
107 1 6.04404 30.7234 17.4468 -3.1779
55 1 13.4336 29.4815 16.5808 -3.1387
56 1 11.5175 27.1178 15.2706 -3.23214
59 1 12.2898 29.621 14.0739 -3.31966
61 1 14.8536 30.8484 14.8921 -3.18767
117 1 11.0043 30.7234 17.4468 -3.1779
64 1 7.46107 32.0832 15.7208 -3.1601
115 1 7.87409 34.7365 17.3925 -3.17178
25 1 10.5103 33.336 14.0452 -3.30052
47 1 10.476 35.4851 15.8158 -3.17936
111 1 8.64179 32.0361 18.1826 -3.28512
27 1 15.4705 33.336 14.0452 -3.30052
28 1 12.9936 34.5373 14.7661 -3.12925
65 1 12.4213 32.0832 15.7208 -3.1601
129 1 12.8343 34.7365 17.3925 -3.17178
29 1 15.4362 35.4851 15.8158 -3.17936
116 1 13.602 32.0361 18.1826 -3.28512
48 1 17.9538 34.5373 14.7661 -3.12925
127 1 9.15751 37.9031 16.9952 -3.21989
140 1 14.1177 37.9031 16.9952 -3.21989
135 1 11.6838 39.2112 18.1091 -3.23748
139 1 16.644 39.2112 18.1091 -3.23748
112 1 8.67058 34.2926 20.0516 -3.35807
114 1 6.17333 33.143 19.0612 -3.29893
110 1 6.20408 35.4303 20.9805 -3.35871
113 1 11.1335 33.143 19.0612 -3.29893
120 1 13.6308 34.2926 20.0516 -3.35807
122 1 11.1643 35.4303 20.9805 -3.35871
118 2 8.68038 36.6016 21.829 -3.37285
119 1 7.78865 39.1394 20.9191 -3.35972
123 1 10.3386 35.7695 18.4176 -3.1604
124 1 10.2557 38.001 20.0315 -3.32767
126 1 7.80872 36.8866 19.189 -3.32562
121 2 13.6406 36.6016 21.829 -3.37285
125 1 12.7689 36.8866 19.189 -3.32562
128 1 15.2988 35.7695 18.4176 -3.1604
132 1 15.2159 38.001 20.0315 -3.32767
134 1 12.7489 39.1394 20.9191 -3.35972
130 2 10.3338 40.2987 21.829 -3.34962
131 1 9.48626 42.8322 20.9191 -3.37393
138 1 9.34887 40.4822 19.1638 -3.31355
133 2 15.294 40.2987 21.829 -3.34962
136 1 11.9407 41.6931 20.0332 -3.373
137 1 14.3091 40.4822 19.1638 -3.31355
141 2 11.9872 43.9958 21.829 -3.36752
144 1 14.4465 42.8322 20.9191 -3.37393
142 1 16.9009 41.6931 20.0332 -3.373
143 2 16.9474 43.9958 21.829 -3.36752
