#Lammps coordinate file for CSL - Axis: [1 1 1]  Angle: (1, 3) -> 59.99999999999999  Plane indices: [0 1 1]  z-position: [4.9336451853244885 14.800935555973464]  Repeats: 1 1 (3, 3) (black, white)  Fixed: 2.228  Boundary equiv: True
144 atoms

2 atom types

0.0 9.920433458271871 xlo xhi
0.0 11.091381789479609 ylo yhi
0.0 19.734580741297954 zlo zhi
4.9602167291359365 16.740731460833793 33.551429913175824 xy xz yz

Atoms

1 1 10.850474094984861 11.230024061848106 5.339252716211904
2 1 15.810690824120794 11.230024061848106 5.339252716211904
3 1 13.33058245955283 12.339162240796066 6.24486024709932
4 1 15.810690824120796 13.448300419744028 7.150467777986734
5 1 19.11750197687809 14.927151325007975 5.339252716211904
6 1 10.850474094984861 13.448300419744028 7.150467777986734
7 1 8.370365730416895 14.55743859869199 8.05607530887415
8 2 10.850474094984861 15.66657677763995 8.961682839761563
9 1 8.370365730416895 12.339162240796067 6.244860247099319
10 2 15.810690824120796 15.66657677763995 8.961682839761563
11 2 13.33058245955283 16.775714956587912 9.867290370648979
12 2 15.810690824120798 17.88485313553587 10.772897901536393
13 1 13.33058245955283 14.55743859869199 8.05607530887415
14 1 14.15728524774215 14.927151325007975 5.339252716211904
15 1 11.677176883174184 16.036289503955935 6.244860247099319
16 1 14.157285247742152 17.1454276829039 7.150467777986734
17 1 19.11750197687809 17.145427682903897 7.150467777986734
18 1 16.63739361231012 18.25456586185186 8.05607530887415
19 2 19.11750197687809 19.363704040799817 8.961682839761563
20 1 16.63739361231012 16.036289503955935 6.24486024709932
21 1 17.464096400499443 18.624278588167847 5.339252716211903
22 1 19.94420476506741 19.733416767115806 6.244860247099318
23 2 10.850474094984863 17.88485313553587 10.772897901536393
24 1 8.370365730416896 18.993991314483836 11.678505432423808
25 1 10.850474094984863 20.103129493431794 12.584112963311222
26 2 8.370365730416896 16.775714956587912 9.867290370648979
27 1 15.810690824120798 20.103129493431794 12.584112963311222
28 1 13.330582459552831 21.212267672379753 13.489720494198638
29 1 15.810690824120798 22.321405851327718 14.395328025086053
30 1 13.330582459552831 18.993991314483836 11.678505432423808
31 2 14.157285247742152 19.36370404079982 8.961682839761563
32 2 11.677176883174186 20.472842219747783 9.867290370648979
33 2 14.157285247742152 21.58198039869574 10.772897901536393
34 1 11.677176883174186 18.25456586185186 8.05607530887415
35 1 12.503879671363507 18.624278588167847 5.339252716211903
36 1 12.503879671363507 20.84255494606377 7.150467777986734
37 2 19.11750197687809 21.58198039869574 10.772897901536393
38 1 16.63739361231012 22.691118577643707 11.678505432423808
39 1 19.11750197687809 23.800256756591665 12.584112963311224
40 2 16.63739361231012 20.472842219747783 9.867290370648979
41 1 17.464096400499443 20.842554946063764 7.150467777986734
42 1 14.983988035931475 21.95169312501173 8.05607530887415
43 2 17.464096400499443 23.060831303959688 8.961682839761563
44 1 14.983988035931475 19.733416767115806 6.244860247099319
45 2 19.94420476506741 24.169969482907653 9.867290370648977
46 1 19.94420476506741 21.95169312501173 8.05607530887415
47 1 10.850474094984865 22.321405851327718 14.395328025086052
48 1 8.370365730416896 21.21226767237976 13.489720494198638
49 1 14.157285247742152 23.800256756591665 12.584112963311222
50 1 11.677176883174187 24.909394935539623 13.489720494198638
51 1 14.157285247742154 26.01853311448759 14.395328025086053
52 1 11.677176883174187 22.691118577643707 11.678505432423808
53 2 12.503879671363507 23.060831303959688 8.961682839761563
54 2 12.503879671363508 25.279107661855612 10.772897901536393
55 1 19.11750197687809 26.01853311448759 14.395328025086052
56 1 16.63739361231012 24.909394935539623 13.48972049419864
57 2 17.464096400499443 25.279107661855612 10.772897901536393
58 1 14.983988035931477 26.388245840803577 11.678505432423808
59 1 17.464096400499443 27.497384019751536 12.584112963311224
60 2 14.983988035931475 24.169969482907653 9.867290370648979
61 1 19.94420476506741 28.606522198699494 13.489720494198636
62 1 19.944204765067408 26.38824584080357 11.678505432423808
63 1 12.503879671363508 27.497384019751536 12.58411296331122
64 1 12.503879671363508 29.71566037764746 14.395328025086052
65 1 17.464096400499443 29.71566037764746 14.39532802508605
66 1 14.983988035931477 28.606522198699494 13.489720494198638
67 1 0.0 2.2182763578959226 1.8112150617748293
68 2 2.4801083645679682 1.109138178947961 0.9056075308874147
69 2 4.960216729135936 -4.440892098500626e-16 -2.220446049250313e-16
70 2 0.0 0.0 0.0
71 1 0.0 6.654829073687768 4.9336451853244885
72 1 2.4801083645679682 3.327414536843884 2.7168225926622442
73 1 2.4801083645679682 5.545690894739806 4.528037654437074
74 1 4.960216729135936 4.436552715791845 3.622430123549659
75 1 0.0 4.436552715791845 3.622430123549659
76 1 1.6534055763786455 5.915403621055794 1.8112150617748293
77 2 7.440325093703903 1.109138178947961 0.9056075308874145
78 1 7.440325093703903 3.3274145368438837 2.7168225926622442
79 1 4.960216729135936 2.218276357895922 1.8112150617748293
80 2 4.133513940946613 4.806265442107832 0.9056075308874145
81 2 6.61362230551458 3.6971272631598704 -5.551115123125783e-16
82 2 1.6534055763786455 3.697127263159871 -3.3306690738754696e-16
83 1 1.6534055763786455 10.351956336847639 4.9336451853244885
84 1 7.440325093703903 5.545690894739806 4.528037654437074
85 1 4.960216729135936 6.654829073687768 4.9336451853244885
86 1 4.133513940946613 7.024541800003755 2.7168225926622442
87 1 4.133513940946613 9.242818157899677 4.528037654437074
88 1 6.61362230551458 8.133679978951715 3.622430123549659
89 1 1.6534055763786455 8.133679978951717 3.622430123549659
90 1 3.306811152757291 9.612530884215664 1.8112150617748288
91 2 9.093730670082548 4.806265442107832 0.9056075308874143
92 1 9.093730670082547 7.024541800003755 2.7168225926622442
93 1 6.61362230551458 5.915403621055793 1.8112150617748288
94 2 5.7869195173252574 8.503392705267704 0.9056075308874141
95 2 8.267027881893226 7.394254526319742 -8.881784197001252e-16
96 2 3.306811152757291 7.394254526319742 -6.661338147750939e-16
97 1 3.306811152757291 14.04908360000751 4.933645185324488
98 1 9.093730670082547 9.242818157899677 4.528037654437074
99 1 6.613622305514581 10.351956336847639 4.9336451853244885
100 1 5.786919517325258 10.721669063163626 2.7168225926622434
101 1 5.786919517325258 12.939945421059548 4.528037654437073
102 1 8.267027881893226 11.830807242111586 3.622430123549659
103 1 3.306811152757291 11.830807242111588 3.622430123549659
104 2 10.747136246461192 8.503392705267704 0.9056075308874139
105 1 10.747136246461192 10.721669063163626 2.7168225926622434
106 1 8.267027881893226 9.612530884215664 1.8112150617748284
107 1 16.740731460833786 26.89660083948806 14.800935555973467
108 1 10.747136246461192 12.939945421059548 4.528037654437073
109 1 8.267027881893226 14.04908360000751 4.933645185324488
110 1 16.740731460833786 31.3331535552799 17.923365679523123
111 1 19.220839825401754 28.005739018436017 15.20654308686088
112 1 19.220839825401754 30.22401537633194 17.01775814863571
113 1 21.700948189969722 29.114877197383983 16.112150617748295
114 1 16.740731460833786 29.114877197383983 16.112150617748295
115 1 18.39413703721243 30.59372810264793 14.800935555973464
116 1 24.18105655453769 28.005739018436017 15.20654308686088
117 1 21.700948189969722 26.89660083948806 14.800935555973464
118 2 19.220839825401754 32.442291734227865 18.82897321041054
119 1 18.39413703721243 35.03028081843977 17.923365679523123
120 1 24.18105655453769 30.22401537633194 17.017758148635707
121 2 24.18105655453769 32.442291734227865 18.82897321041054
122 1 21.700948189969722 31.3331535552799 17.923365679523126
123 1 20.8742454017804 31.702866281595888 15.20654308686088
124 1 20.8742454017804 33.92114263949181 17.01775814863571
125 1 23.354353766348368 32.812004460543854 16.112150617748295
126 1 18.39413703721243 32.812004460543854 16.112150617748295
127 1 20.047542613591077 34.2908553658078 14.800935555973464
128 1 25.834462130916336 31.702866281595888 15.20654308686088
129 1 23.354353766348368 30.59372810264793 14.800935555973464
130 2 20.8742454017804 36.139418997387736 18.82897321041054
131 1 20.047542613591077 38.72740808159964 17.923365679523123
132 1 25.834462130916336 33.92114263949181 17.017758148635707
133 2 25.834462130916336 36.139418997387736 18.82897321041054
134 1 23.354353766348368 35.03028081843977 17.923365679523126
135 1 22.527650978159045 35.39999354475576 15.20654308686088
136 1 22.527650978159045 37.61826990265168 17.01775814863571
137 1 25.007759342727013 36.509131723703725 16.112150617748295
138 1 20.047542613591077 36.509131723703725 16.112150617748295
139 1 27.48786770729498 35.39999354475576 15.20654308686088
140 1 25.007759342727013 34.2908553658078 14.800935555973464
141 2 22.527650978159045 39.83654626054761 18.82897321041054
142 1 27.48786770729498 37.61826990265168 17.017758148635707
143 2 27.48786770729498 39.83654626054761 18.82897321041054
144 1 25.007759342727013 38.72740808159964 17.923365679523126
