#Lammps coordinate file for CSL - Axis: [1 1 1]  Angle: (1, 3) -> 59.99999999999999  Plane indices: [0 1 1]  z-position: [6.1836451853244885 18.550935555973464]  Repeats: 1 1 (3, 3) (black, white)  Fixed: 2.228  Boundary equiv: True
144 atoms

2 atom types

0.0 9.920433458271871 xlo xhi
0.0 11.091381789479609 ylo yhi
0.0 24.734580741297954 zlo zhi
4.9602167291359365 12.400541822839848 40.48354353160058 xy xz yz

Atoms

1 1 8.680379275987889 14.696080871060484 7.839252716211904
2 1 13.640596005123822 14.696080871060484 7.839252716211904
3 1 11.160487640555857 15.805219050008445 8.74486024709932
4 1 13.640596005123824 16.914357228956405 9.650467777986734
5 1 16.947407157881116 18.39320813422035 7.839252716211904
6 1 8.680379275987889 16.914357228956405 9.650467777986734
7 1 6.200270911419922 18.02349540790437 10.55607530887415
8 2 8.680379275987889 19.13263358685233 11.461682839761563
9 1 6.200270911419922 15.805219050008446 8.744860247099318
10 2 13.640596005123824 19.13263358685233 11.461682839761563
11 2 11.160487640555857 20.241771765800287 12.367290370648979
12 2 13.640596005123825 21.350909944748253 13.272897901536393
13 1 11.160487640555857 18.02349540790437 10.55607530887415
14 1 11.987190428745178 18.39320813422035 7.839252716211904
15 1 9.507082064177212 19.502346313168317 8.744860247099318
16 1 11.98719042874518 20.611484492116276 9.650467777986734
17 1 16.947407157881116 20.611484492116276 9.650467777986734
18 1 14.467298793313148 21.720622671064238 10.55607530887415
19 2 16.947407157881116 22.8297608500122 11.461682839761563
20 1 14.467298793313146 19.502346313168317 8.74486024709932
21 1 15.29400158150247 22.090335397380223 7.839252716211903
22 1 17.77410994607044 23.199473576328188 8.744860247099318
23 2 8.68037927598789 21.350909944748253 13.272897901536393
24 1 6.200270911419923 22.46004812369621 14.178505432423808
25 1 8.68037927598789 23.569186302644177 15.084112963311222
26 2 6.200270911419923 20.24177176580029 12.367290370648979
27 1 13.640596005123825 23.569186302644177 15.084112963311222
28 1 11.160487640555859 24.678324481592135 15.989720494198638
29 1 13.640596005123825 25.787462660540093 16.89532802508605
30 1 11.160487640555859 22.46004812369621 14.178505432423808
31 2 11.98719042874518 22.8297608500122 11.461682839761563
32 2 9.507082064177213 23.938899028960158 12.367290370648979
33 2 11.98719042874518 25.048037207908123 13.272897901536393
34 1 9.507082064177213 21.72062267106424 10.55607530887415
35 1 10.333784852366534 22.090335397380223 7.839252716211903
36 1 10.333784852366534 24.308611755276146 9.650467777986734
37 2 16.947407157881116 25.048037207908123 13.272897901536393
38 1 14.467298793313148 26.157175386856082 14.178505432423808
39 1 16.947407157881116 27.266313565804047 15.084112963311224
40 2 14.467298793313148 23.938899028960158 12.367290370648979
41 1 15.29400158150247 24.308611755276146 9.650467777986734
42 1 12.813893216934503 25.417749934224112 10.55607530887415
43 2 15.29400158150247 26.52688811317207 11.461682839761563
44 1 12.813893216934503 23.199473576328188 8.744860247099318
45 2 17.77410994607044 27.63602629212003 12.367290370648977
46 1 17.77410994607044 25.417749934224105 10.55607530887415
47 1 8.680379275987892 25.7874626605401 16.89532802508605
48 1 6.200270911419924 24.678324481592135 15.989720494198638
49 1 11.98719042874518 27.266313565804047 15.084112963311222
50 1 9.507082064177215 28.375451744752006 15.989720494198638
51 1 11.987190428745182 29.484589923699964 16.89532802508605
52 1 9.507082064177215 26.157175386856082 14.178505432423808
53 2 10.333784852366534 26.52688811317207 11.461682839761563
54 2 10.333784852366536 28.745164471067994 13.272897901536393
55 1 16.947407157881116 29.484589923699964 16.89532802508605
56 1 14.467298793313148 28.375451744752006 15.98972049419864
57 2 15.29400158150247 28.745164471067994 13.272897901536393
58 1 12.813893216934504 29.854302650015953 14.178505432423808
59 1 15.294001581502473 30.96344082896392 15.084112963311224
60 2 12.813893216934503 27.63602629212003 12.367290370648979
61 1 17.77410994607044 32.07257900791188 15.989720494198636
62 1 17.774109946070435 29.854302650015953 14.178505432423808
63 1 10.333784852366536 30.96344082896392 15.08411296331122
64 1 10.333784852366536 33.181717186859835 16.89532802508605
65 1 15.294001581502473 33.181717186859835 16.895328025086048
66 1 12.813893216934504 32.07257900791188 15.989720494198638
67 1 0.0 2.218276357895922 1.8112150617748295
68 2 2.480108364567968 1.109138178947961 0.9056075308874147
69 2 4.960216729135936 0.0 -2.220446049250313e-16
70 2 0.0 0.0 0.0
71 1 0.0 6.654829073687768 6.1836451853244885
72 1 2.480108364567968 3.327414536843884 2.7168225926622442
73 1 2.4801083645679682 5.545690894739806 4.528037654437074
74 1 4.960216729135936 4.436552715791845 3.622430123549659
75 1 0.0 4.436552715791845 3.622430123549659
76 1 1.6534055763786455 5.915403621055794 1.811215061774829
77 2 7.440325093703903 1.109138178947961 0.9056075308874146
78 1 7.440325093703903 3.3274145368438837 2.7168225926622442
79 1 4.960216729135936 2.218276357895922 1.8112150617748293
80 2 4.133513940946613 4.806265442107832 0.9056075308874144
81 2 6.61362230551458 3.6971272631598704 -4.440892098500626e-16
82 2 1.6534055763786455 3.697127263159871 -2.220446049250313e-16
83 1 1.6534055763786455 10.351956336847639 6.1836451853244885
84 1 7.440325093703903 5.545690894739806 4.528037654437074
85 1 4.960216729135936 6.654829073687768 6.1836451853244885
86 1 4.133513940946613 7.024541800003755 2.7168225926622442
87 1 4.133513940946613 9.242818157899677 4.528037654437074
88 1 6.61362230551458 8.133679978951715 3.622430123549659
89 1 1.6534055763786455 8.133679978951717 3.622430123549659
90 1 3.3068111527572905 9.612530884215664 1.8112150617748288
91 2 9.093730670082548 4.806265442107832 0.9056075308874143
92 1 9.093730670082547 7.024541800003755 2.7168225926622442
93 1 6.61362230551458 5.915403621055793 1.8112150617748288
94 2 5.7869195173252574 8.503392705267704 0.905607530887414
95 2 8.267027881893226 7.394254526319742 -8.881784197001252e-16
96 2 3.3068111527572905 7.394254526319742 -6.661338147750939e-16
97 1 3.306811152757291 14.04908360000751 6.183645185324488
98 1 9.093730670082547 9.242818157899677 4.528037654437074
99 1 6.613622305514581 10.351956336847639 6.1836451853244885
100 1 5.786919517325258 10.721669063163626 2.7168225926622434
101 1 5.786919517325258 12.939945421059548 4.528037654437073
102 1 8.267027881893226 11.830807242111586 3.622430123549658
103 1 3.306811152757291 11.830807242111588 3.622430123549658
104 2 10.747136246461192 8.503392705267704 0.9056075308874139
105 1 10.747136246461192 10.721669063163626 2.7168225926622434
106 1 8.267027881893226 9.612530884215664 1.8112150617748286
107 1 12.400541822839843 33.82871445791282 18.550935555973467
108 1 10.747136246461192 12.939945421059548 4.528037654437073
109 1 8.267027881893226 14.04908360000751 6.183645185324488
110 1 12.400541822839843 38.265267173704665 22.923365679523123
111 1 14.88065018740781 34.93785263686078 20.20654308686088
112 1 14.880650187407811 37.156128994756706 22.01775814863571
113 1 17.360758551975778 36.04699081580874 21.112150617748295
114 1 12.400541822839843 36.04699081580874 21.112150617748295
115 1 14.053947399218487 37.52584172107269 18.550935555973464
116 1 19.840866916543746 34.93785263686078 20.20654308686088
117 1 17.360758551975778 33.82871445791282 18.550935555973464
118 2 14.880650187407811 39.37440535265262 23.82897321041054
119 1 14.053947399218488 41.962394436864535 22.923365679523123
120 1 19.840866916543746 37.1561289947567 22.017758148635707
121 2 19.840866916543746 39.37440535265262 23.82897321041054
122 1 17.360758551975778 38.265267173704665 22.923365679523126
123 1 16.534055763786455 38.63497990002065 20.20654308686088
124 1 16.534055763786455 40.85325625791658 22.01775814863571
125 1 19.014164128354423 39.74411807896861 21.112150617748295
126 1 14.053947399218488 39.74411807896861 21.112150617748295
127 1 15.707352975597132 41.22296898423256 18.550935555973464
128 1 21.49427249292239 38.63497990002065 20.20654308686088
129 1 19.014164128354423 37.52584172107269 18.550935555973464
130 2 16.534055763786455 43.071532615812494 23.82897321041054
131 1 15.707352975597134 45.659521700024406 22.923365679523123
132 1 21.49427249292239 40.85325625791657 22.017758148635707
133 2 21.49427249292239 43.071532615812494 23.82897321041054
134 1 19.014164128354423 41.962394436864535 22.923365679523126
135 1 18.1874613401651 42.332107163180524 20.20654308686088
136 1 18.1874613401651 44.55038352107645 22.01775814863571
137 1 20.66756970473307 43.44124534212848 21.112150617748295
138 1 15.707352975597134 43.44124534212848 21.112150617748295
139 1 23.147678069301037 42.332107163180524 20.20654308686088
140 1 20.66756970473307 41.22296898423256 18.550935555973464
141 2 18.1874613401651 46.76865987897237 23.82897321041054
142 1 23.147678069301037 44.55038352107644 22.017758148635707
143 2 23.147678069301037 46.76865987897237 23.82897321041054
144 1 20.66756970473307 45.659521700024406 22.923365679523126
