ITEM: TIMESTEP
0
ITEM: NUMBER OF ATOMS
144
ITEM: BOX BOUNDS xy xz yz pp pp pp
0.0000000000000000e+00 2.9141273283673627e+01 4.9602167291359365e+00
0.0000000000000000e+00 4.4642811702655436e+01 1.4260623096265821e+01
0.0000000000000000e+00 2.3734580741297954e+01 3.3551429913175824e+01
ITEM: ATOMS id type x y z c_peatom
70 2 0 0 0 -3.3739
82 2 1.65341 3.69713 0 -3.3739
69 2 4.96022 0 0 -3.3739
81 2 6.61362 3.69713 0 -3.3739
80 2 4.13351 4.80627 0.905608 -3.36818
86 1 4.13351 7.02454 2.71682 -3.33152
88 1 6.61362 8.13368 3.62243 -3.27596
91 2 9.09373 4.80627 0.905608 -3.36818
92 1 9.09373 7.02454 2.71682 -3.33152
93 1 6.61362 5.9154 1.81122 -3.38229
94 2 5.78692 8.50339 0.905608 -3.36815
95 2 8.26703 7.39425 0 -3.3739
76 1 11.5738 5.9154 1.81122 -3.38229
89 1 11.5738 8.13368 3.62243 -3.27596
96 2 13.2272 7.39425 0 -3.3739
104 2 10.7471 8.50339 0.905608 -3.36815
87 1 4.13351 9.24282 4.52804 -3.15075
68 2 7.44033 12.2005 0.905608 -3.36818
98 1 9.09373 9.24282 4.52804 -3.15075
100 1 5.78692 10.7217 2.71682 -3.35072
101 1 5.78692 12.9399 4.52804 -3.15716
102 1 8.26703 11.8308 3.62243 -3.29325
106 1 8.26703 9.61253 1.81122 -3.38615
77 2 12.4005 12.2005 0.905608 -3.36818
79 1 9.92043 13.3097 1.81122 -3.38504
90 1 13.2272 9.61253 1.81122 -3.38615
103 1 13.2272 11.8308 3.62243 -3.29325
105 1 10.7471 10.7217 2.71682 -3.35072
108 1 10.7471 12.9399 4.52804 -3.15716
67 1 14.8807 13.3097 1.81122 -3.38504
72 1 7.44033 14.4188 2.71682 -3.36102
73 1 7.44033 16.6371 4.52804 -3.17466
74 1 9.92043 15.5279 3.62243 -3.29237
78 1 12.4005 14.4188 2.71682 -3.36102
84 1 12.4005 16.6371 4.52804 -3.17466
75 1 14.8807 15.5279 3.62243 -3.29237
1 1 9.61042 11.23 7.33925 -3.05207
9 1 7.13031 12.3392 8.24486 -3.28219
99 1 6.61362 10.352 5.93365 -3.00671
2 1 14.5706 11.23 7.33925 -3.05207
3 1 12.0905 12.3392 8.24486 -3.28219
83 1 11.5738 10.352 5.93365 -3.00671
5 1 7.95701 14.9272 7.33925 -2.0385
6 1 9.61042 13.4483 9.15047 -3.34305
17 1 7.95701 17.1454 9.15047 -3.37421
109 1 8.26703 14.0491 5.93365 -1.96672
4 1 14.5706 13.4483 9.15047 -3.34305
14 1 12.9172 14.9272 7.33925 -2.0385
15 1 10.4371 16.0363 8.24486 -3.26996
16 1 12.9172 17.1454 9.15047 -3.37421
85 1 9.92043 17.7462 5.93365 -2.70798
97 1 13.2272 14.0491 5.93365 -1.96672
20 1 15.3973 16.0363 8.24486 -3.26996
71 1 14.8807 17.7462 5.93365 -2.70798
22 1 8.78372 19.7334 8.24486 -3.24328
35 1 11.2638 18.6243 7.33925 -2.74106
36 1 11.2638 20.8426 9.15047 -3.36572
44 1 13.7439 19.7334 8.24486 -3.24328
21 1 16.224 18.6243 7.33925 -2.74106
41 1 16.224 20.8426 9.15047 -3.36572
7 1 7.13031 14.5574 10.0561 -3.39414
8 2 9.61042 15.6666 10.9617 -3.36888
10 2 14.5706 15.6666 10.9617 -3.36888
13 1 12.0905 14.5574 10.0561 -3.39414
31 2 12.9172 19.3637 10.9617 -3.37297
32 2 10.4371 20.4728 11.8673 -3.3717
33 2 12.9172 21.582 12.7729 -3.37243
34 1 10.4371 18.2546 10.0561 -3.41047
42 1 13.7439 21.9517 10.0561 -3.37954
18 1 15.3973 18.2546 10.0561 -3.41047
19 2 17.8774 19.3637 10.9617 -3.37297
37 2 17.8774 21.582 12.7729 -3.37243
40 2 15.3973 20.4728 11.8673 -3.3717
46 1 18.7042 21.9517 10.0561 -3.37954
52 1 10.4371 22.6911 13.6785 -3.37954
53 2 11.2638 23.0608 10.9617 -3.37243
54 2 11.2638 25.2791 12.7729 -3.37297
58 1 13.7439 26.3882 13.6785 -3.41047
60 2 13.7439 24.17 11.8673 -3.3717
38 1 15.3973 22.6911 13.6785 -3.37954
43 2 16.224 23.0608 10.9617 -3.37243
45 2 18.7042 24.17 11.8673 -3.3717
57 2 16.224 25.2791 12.7729 -3.37297
62 1 18.7042 26.3882 13.6785 -3.41047
26 2 12.0905 27.8671 11.8673 -3.37543
11 2 17.0507 27.8671 11.8673 -3.37543
23 2 14.5706 28.9762 12.7729 -3.36888
30 1 17.0507 30.0854 13.6785 -3.39414
12 2 19.5309 28.9762 12.7729 -3.36888
24 1 22.011 30.0854 13.6785 -3.39414
49 1 12.9172 23.8003 14.5841 -3.36572
51 1 12.9172 26.0185 16.3953 -2.74106
39 1 17.8774 23.8003 14.5841 -3.36572
55 1 17.8774 26.0185 16.3953 -2.74106
56 1 15.3973 24.9094 15.4897 -3.24328
50 1 20.3576 24.9094 15.4897 -3.24328
66 1 13.7439 28.6065 15.4897 -3.26996
107 1 14.2606 26.8966 17.8009 -2.70798
25 1 14.5706 31.1945 14.5841 -3.34305
59 1 16.224 27.4974 14.5841 -3.37421
61 1 18.7042 28.6065 15.4897 -3.26996
65 1 16.224 29.7157 16.3953 -2.0385
115 1 15.914 30.5937 17.8009 -1.96672
117 1 19.2208 26.8966 17.8009 -2.70798
27 1 19.5309 31.1945 14.5841 -3.34305
63 1 21.1843 27.4974 14.5841 -3.37421
64 1 21.1843 29.7157 16.3953 -2.0385
129 1 20.8742 30.5937 17.8009 -1.96672
28 1 17.0507 32.3036 15.4897 -3.28219
47 1 14.5706 33.4128 16.3953 -3.05207
127 1 17.5674 34.2909 17.8009 -3.00671
29 1 19.5309 33.4128 16.3953 -3.05207
48 1 22.011 32.3036 15.4897 -3.28219
140 1 22.5277 34.2909 17.8009 -3.00671
114 1 14.2606 29.1149 20.1122 -3.29237
111 1 16.7407 28.0057 19.2065 -3.17466
112 1 16.7407 30.224 21.0178 -3.36102
113 1 19.2208 29.1149 20.1122 -3.29237
116 1 21.7009 28.0057 19.2065 -3.17466
120 1 21.7009 30.224 21.0178 -3.36102
110 1 14.2606 31.3332 21.9234 -3.38504
118 2 16.7407 32.4423 22.829 -3.36818
119 1 15.914 35.0303 21.9234 -3.38615
122 1 19.2208 31.3332 21.9234 -3.38504
123 1 18.3941 31.7029 19.2065 -3.15716
124 1 18.3941 33.9211 21.0178 -3.35072
126 1 15.914 32.812 20.1122 -3.29325
121 2 21.7009 32.4423 22.829 -3.36818
125 1 20.8742 32.812 20.1122 -3.29325
128 1 23.3544 31.7029 19.2065 -3.15716
132 1 23.3544 33.9211 21.0178 -3.35072
134 1 20.8742 35.0303 21.9234 -3.38615
135 1 20.0475 35.4 19.2065 -3.15075
139 1 25.0078 35.4 19.2065 -3.15075
130 2 18.3941 36.1394 22.829 -3.36815
131 1 17.5674 38.7274 21.9234 -3.38229
138 1 17.5674 36.5091 20.1122 -3.27596
133 2 23.3544 36.1394 22.829 -3.36815
136 1 20.0475 37.6183 21.0178 -3.33152
137 1 22.5277 36.5091 20.1122 -3.27596
141 2 20.0475 39.8365 22.829 -3.36818
144 1 22.5277 38.7274 21.9234 -3.38229
142 1 25.0078 37.6183 21.0178 -3.33152
143 2 25.0078 39.8365 22.829 -3.36818
