ITEM: TIMESTEP
64
ITEM: NUMBER OF ATOMS
144
ITEM: BOX BOUNDS xy xz yz pp pp pp
0.0000000000000000e+00 3.2241408739383587e+01 4.9602167291359365e+00
0.0000000000000000e+00 5.9893461663189896e+01 1.7360758551975781e+01
0.0000000000000000e+00 2.5734580741297954e+01 4.8802079873710284e+01
ITEM: ATOMS id type x y z c_peatom
70 2 0 0 0 -3.3434
69 2 4.96022 4.21077e-16 0 -3.3434
81 2 6.61362 3.69713 0 -3.3387
82 2 11.5738 3.69713 0 -3.3387
80 2 4.13351 4.80627 0.905608 -3.33785
86 1 4.12344 6.93604 2.90352 -3.36701
88 1 6.59393 8.01549 3.80708 -3.32605
91 2 9.09373 4.80627 0.905608 -3.33785
92 1 9.08365 6.93604 2.90352 -3.36701
93 1 6.61735 5.87248 1.94912 -3.36356
94 2 5.78692 8.50339 0.905608 -3.34133
95 2 8.26703 7.39425 0 -3.3387
76 1 11.5776 5.87248 1.94912 -3.36356
89 1 11.5541 8.01549 3.80708 -3.32605
96 2 13.2272 7.39425 0 -3.3387
104 2 10.7471 8.50339 0.905608 -3.34133
87 1 4.10922 9.15046 4.75291 -3.13314
68 2 7.44033 12.2005 0.905608 -3.34736
98 1 9.06943 9.15046 4.75291 -3.13314
100 1 5.88328 10.6483 2.87356 -3.37349
101 1 6.09328 12.8486 4.72001 -3.08441
102 1 8.43315 11.7397 3.74573 -3.29274
106 1 8.30646 9.55348 1.93494 -3.3708
77 2 12.4005 12.2005 0.905608 -3.34736
79 1 9.97674 13.2865 1.93931 -3.38423
90 1 13.2667 9.55348 1.93494 -3.3708
103 1 13.3934 11.7397 3.74573 -3.29274
105 1 10.8435 10.6483 2.87356 -3.37349
108 1 11.0535 12.8486 4.72001 -3.08441
67 1 14.937 13.2865 1.93931 -3.38423
72 1 7.52633 14.391 2.87498 -3.36511
73 1 7.46213 16.4538 4.90748 -3.08836
74 1 9.97436 15.461 3.82986 -3.28136
78 1 12.4865 14.391 2.87498 -3.36511
84 1 12.4223 16.4538 4.90748 -3.08836
75 1 14.9346 15.461 3.82986 -3.28136
109 1 8.67206 13.7709 5.78012 -2.89184
85 1 9.9169 17.6525 5.86124 -2.86947
97 1 13.6323 13.7709 5.78012 -2.89184
71 1 14.8771 17.6525 5.86124 -2.86947
9 1 8.8159 20.0329 9.14797 -3.12062
1 1 11.3608 19.0306 8.08341 -2.94565
3 1 13.7761 20.0329 9.14797 -3.12062
5 1 9.39653 22.6804 8.02749 -2.87829
6 1 11.2173 21.1184 10.0947 -3.32001
99 1 11.5289 21.2866 5.80765 -2.90636
2 1 16.321 19.0306 8.08341 -2.94565
4 1 16.1775 21.1184 10.0947 -3.32001
14 1 14.3567 22.6804 8.02749 -2.87829
83 1 16.4892 21.2866 5.80765 -2.90636
15 1 11.8642 23.7007 9.12682 -3.12665
17 1 9.40724 24.845 10.0466 -3.32712
35 1 12.6219 26.3302 8.06561 -2.85562
16 1 14.3675 24.845 10.0466 -3.32712
20 1 16.8244 23.7007 9.12682 -3.12665
21 1 17.5821 26.3302 8.06561 -2.85562
44 1 15.153 27.4754 8.9899 -3.08232
22 1 20.1132 27.4754 8.9899 -3.08232
36 1 12.7666 28.5076 10.0494 -3.29689
41 1 17.7268 28.5076 10.0494 -3.29689
7 1 8.70563 22.2264 10.9737 -3.38235
13 1 13.6658 22.2264 10.9737 -3.38235
8 2 11.1605 23.2919 11.9617 -3.37541
34 1 11.9233 25.9259 10.9488 -3.38229
10 2 16.1207 23.2919 11.9617 -3.37541
18 1 16.8836 25.9259 10.9488 -3.38229
31 2 14.4673 26.989 11.9617 -3.37169
19 2 19.4275 26.989 11.9617 -3.37169
32 2 11.9872 28.0982 12.8673 -3.35985
52 1 11.9875 30.3148 14.7763 -3.37877
53 2 12.8139 30.6862 11.9617 -3.38595
33 2 14.4673 29.2073 13.7729 -3.38595
38 1 16.9477 30.3148 14.7763 -3.37877
40 2 16.9474 28.0982 12.8673 -3.35985
42 1 15.2937 29.5786 10.9583 -3.37877
43 2 17.7741 30.6862 11.9617 -3.38595
60 2 15.294 31.7953 12.8673 -3.35985
37 2 19.4275 29.2073 13.7729 -3.38595
45 2 20.2542 31.7953 12.8673 -3.35985
46 1 20.2539 29.5786 10.9583 -3.37877
26 2 13.6406 35.4924 12.8673 -3.35907
54 2 12.8139 32.9044 13.7729 -3.37169
23 2 16.1207 36.6016 13.7729 -3.37541
57 2 17.7741 32.9044 13.7729 -3.37169
58 1 15.3579 33.9675 14.7858 -3.38229
11 2 18.6008 35.4924 12.8673 -3.35907
12 2 21.0809 36.6016 13.7729 -3.37541
62 1 20.3181 33.9675 14.7858 -3.38229
30 1 18.5756 37.6671 14.7608 -3.38235
24 1 23.5358 37.6671 14.7608 -3.38235
49 1 14.5146 31.3859 15.6852 -3.29689
39 1 19.4748 31.3859 15.6852 -3.29689
50 1 12.1282 32.4181 16.7447 -3.08232
51 1 14.6593 33.5633 17.669 -2.85562
56 1 17.0884 32.4181 16.7447 -3.08232
59 1 17.874 35.0485 15.688 -3.32712
66 1 15.417 36.1928 16.6078 -3.12665
55 1 19.6195 33.5633 17.669 -2.85562
61 1 20.3772 36.1928 16.6078 -3.12665
63 1 22.8342 35.0485 15.688 -3.32712
25 1 16.0639 38.775 15.6399 -3.32001
47 1 15.9204 40.8628 17.6512 -2.94565
65 1 17.8847 37.2131 17.7071 -2.87829
127 1 15.7522 38.6069 19.9269 -2.90636
27 1 21.0241 38.775 15.6399 -3.32001
28 1 18.4653 39.8606 16.5866 -3.12062
29 1 20.8806 40.8628 17.6512 -2.94565
64 1 22.8449 37.2131 17.7071 -2.87829
140 1 20.7125 38.6069 19.9269 -2.90636
48 1 23.4255 39.8606 16.5866 -3.12062
107 1 17.3643 42.241 19.8733 -2.86947
115 1 18.6091 46.1225 19.9545 -2.89184
117 1 22.3245 42.241 19.8733 -2.86947
129 1 23.5693 46.1225 19.9545 -2.89184
114 1 17.3068 44.4325 21.9047 -3.28136
111 1 19.8191 43.4397 20.8271 -3.08836
112 1 19.7549 45.5024 22.8596 -3.36511
113 1 22.267 44.4325 21.9047 -3.28136
116 1 24.7793 43.4397 20.8271 -3.08836
120 1 24.7151 45.5024 22.8596 -3.36511
110 1 17.3044 46.6069 23.7953 -3.38423
118 2 19.8409 47.6929 24.829 -3.34736
119 1 18.9747 50.34 23.7996 -3.3708
122 1 22.2647 46.6069 23.7953 -3.38423
123 1 21.1879 47.0448 21.0146 -3.08441
124 1 21.3979 49.2452 22.861 -3.37349
126 1 18.848 48.1537 21.9888 -3.29274
121 2 24.8011 47.6929 24.829 -3.34736
125 1 23.8083 48.1537 21.9888 -3.29274
128 1 26.1481 47.0448 21.0146 -3.08441
132 1 26.3581 49.2452 22.861 -3.37349
134 1 23.935 50.34 23.7996 -3.3708
135 1 23.172 50.743 20.9817 -3.13314
139 1 28.1322 50.743 20.9817 -3.13314
130 2 21.4943 51.3901 24.829 -3.34133
131 1 20.6638 54.021 23.7855 -3.36356
138 1 20.6873 51.878 21.9275 -3.32605
133 2 26.4545 51.3901 24.829 -3.34133
136 1 23.1578 52.9574 22.8311 -3.36701
137 1 25.6475 51.878 21.9275 -3.32605
141 2 23.1477 55.0872 24.829 -3.33785
144 1 25.6241 54.021 23.7855 -3.36356
142 1 28.118 52.9574 22.8311 -3.36701
143 2 28.1079 55.0872 24.829 -3.33785
