ITEM: TIMESTEP
0
ITEM: NUMBER OF ATOMS
144
ITEM: BOX BOUNDS xy xz yz pp pp pp
0.0000000000000000e+00 3.5961571286235539e+01 4.9602167291359365e+00
0.0000000000000000e+00 5.9893461663189896e+01 2.1080921098827734e+01
0.0000000000000000e+00 2.2734580741297954e+01 4.8802079873710291e+01
ITEM: ATOMS id type x y z c_peatom
70 2 0 0 0 -3.36905
82 2 1.65341 3.69713 0 -3.36905
69 2 4.96022 3.57481e-16 0 -3.36905
81 2 6.61362 3.69713 0 -3.36905
80 2 4.13351 4.80627 0.905608 -3.36181
86 1 4.13351 7.02454 2.71682 -3.36594
88 1 6.61362 8.13368 3.62243 -3.34283
93 1 6.61362 5.9154 1.81122 -3.36823
94 2 5.78692 8.50339 0.905608 -3.36438
95 2 8.26703 7.39425 0 -3.36905
76 1 11.5738 5.9154 1.81122 -3.36823
89 1 11.5738 8.13368 3.62243 -3.34283
91 2 9.09373 4.80627 0.905608 -3.36181
92 1 9.09373 7.02454 2.71682 -3.36594
96 2 13.2272 7.39425 0 -3.36905
104 2 10.7471 8.50339 0.905608 -3.36438
68 2 7.44033 12.2005 0.905608 -3.36246
100 1 5.78692 10.7217 2.71682 -3.36749
101 1 5.78692 12.9399 4.52804 -3.26671
102 1 8.26703 11.8308 3.62243 -3.32856
106 1 8.26703 9.61253 1.81122 -3.36812
77 2 12.4005 12.2005 0.905608 -3.36246
79 1 9.92043 13.3097 1.81122 -3.3648
90 1 13.2272 9.61253 1.81122 -3.36812
103 1 13.2272 11.8308 3.62243 -3.32856
105 1 10.7471 10.7217 2.71682 -3.36749
108 1 10.7471 12.9399 4.52804 -3.26671
67 1 14.8807 13.3097 1.81122 -3.3648
72 1 7.44033 14.4188 2.71682 -3.34143
73 1 7.44033 16.6371 4.52804 -3.25037
74 1 9.92043 15.5279 3.62243 -3.32841
78 1 12.4005 14.4188 2.71682 -3.34143
84 1 12.4005 16.6371 4.52804 -3.25037
75 1 14.8807 15.5279 3.62243 -3.32841
87 1 9.09373 20.3342 4.52804 -3.27094
98 1 14.0539 20.3342 4.52804 -3.27094
109 1 8.26703 14.0491 5.68365 -2.84685
35 1 9.71376 15.1582 6.83925 -2.87176
85 1 9.92043 17.7462 5.68365 -3.12737
97 1 13.2272 14.0491 5.68365 -2.84685
21 1 14.674 15.1582 6.83925 -2.87176
71 1 14.8807 17.7462 5.68365 -3.12737
1 1 13.0206 18.8553 6.83925 -3.13074
5 1 11.3672 22.5525 6.83925 -1.97109
6 1 13.0206 21.0736 8.65047 -3.35328
9 1 10.5405 19.9645 7.74486 -3.29143
99 1 11.5738 21.4433 5.68365 -1.97218
2 1 17.9808 18.8553 6.83925 -3.13074
3 1 15.5007 19.9645 7.74486 -3.29143
4 1 17.9808 21.0736 8.65047 -3.35328
14 1 16.3274 22.5525 6.83925 -1.97109
83 1 16.5341 21.4433 5.68365 -1.97218
17 1 11.3672 24.7708 8.65047 -3.37669
22 1 12.1939 27.3587 7.74486 -3.29152
15 1 13.8473 23.6616 7.74486 -3.24726
16 1 16.3274 24.7708 8.65047 -3.37669
44 1 17.1541 27.3587 7.74486 -3.29152
20 1 18.8075 23.6616 7.74486 -3.24726
36 1 14.674 28.4679 8.65047 -3.36368
41 1 19.6342 28.4679 8.65047 -3.36368
7 1 10.5405 22.1828 9.55608 -3.37018
13 1 15.5007 22.1828 9.55608 -3.37018
8 2 13.0206 23.2919 10.4617 -3.36428
10 2 17.9808 23.2919 10.4617 -3.36428
31 2 16.3274 26.989 10.4617 -3.36141
34 1 13.8473 25.8799 9.55608 -3.3934
18 1 18.8075 25.8799 9.55608 -3.3934
19 2 21.2876 26.989 10.4617 -3.36141
32 2 13.8473 28.0982 11.3673 -3.36337
33 2 16.3274 29.2073 12.2729 -3.36113
42 1 17.1541 29.577 9.55608 -3.37326
52 1 13.8473 30.3164 13.1785 -3.37326
53 2 14.674 30.6862 10.4617 -3.36113
60 2 17.1541 31.7953 11.3673 -3.36337
37 2 21.2876 29.2073 12.2729 -3.36113
38 1 18.8075 30.3164 13.1785 -3.37326
40 2 18.8075 28.0982 11.3673 -3.36337
43 2 19.6342 30.6862 10.4617 -3.36113
45 2 22.1143 31.7953 11.3673 -3.36337
46 1 22.1143 29.577 9.55608 -3.37326
23 2 17.9808 36.6016 12.2729 -3.36428
54 2 14.674 32.9044 12.2729 -3.36141
58 1 17.1541 34.0136 13.1785 -3.3934
11 2 20.4609 35.4924 11.3673 -3.37257
57 2 19.6342 32.9044 12.2729 -3.36141
62 1 22.1143 34.0136 13.1785 -3.3934
12 2 22.941 36.6016 12.2729 -3.36428
26 2 25.4211 35.4924 11.3673 -3.37257
30 1 20.4609 37.7107 13.1785 -3.37018
24 1 25.4211 37.7107 13.1785 -3.37018
49 1 16.3274 31.4256 14.0841 -3.36368
39 1 21.2876 31.4256 14.0841 -3.36368
66 1 17.1541 36.2318 14.9897 -3.24726
56 1 18.8075 32.5347 14.9897 -3.29152
59 1 19.6342 35.1227 14.0841 -3.37669
61 1 22.1143 36.2318 14.9897 -3.24726
50 1 23.7677 32.5347 14.9897 -3.29152
63 1 24.5944 35.1227 14.0841 -3.37669
25 1 17.9808 38.8198 14.0841 -3.35328
28 1 20.4609 39.929 14.9897 -3.29143
47 1 17.9808 41.0381 15.8953 -3.13074
65 1 19.6342 37.341 15.8953 -1.97109
127 1 19.4275 38.4501 17.0509 -1.97218
27 1 22.941 38.8198 14.0841 -3.35328
29 1 22.941 41.0381 15.8953 -3.13074
48 1 25.4211 39.929 14.9897 -3.29143
64 1 24.5944 37.341 15.8953 -1.97109
140 1 24.3877 38.4501 17.0509 -1.97218
51 1 21.2876 44.7352 15.8953 -2.87176
107 1 21.0809 42.1473 17.0509 -3.12737
55 1 26.2478 44.7352 15.8953 -2.87176
115 1 22.7343 45.8444 17.0509 -2.84685
117 1 26.0411 42.1473 17.0509 -3.12737
129 1 27.6945 45.8444 17.0509 -2.84685
135 1 21.9076 39.5593 18.2065 -3.27094
139 1 26.8678 39.5593 18.2065 -3.27094
114 1 21.0809 44.3655 19.1122 -3.32841
111 1 23.561 43.2564 18.2065 -3.25037
112 1 23.561 45.4747 20.0178 -3.34143
113 1 26.0411 44.3655 19.1122 -3.32841
116 1 28.5212 43.2564 18.2065 -3.25037
120 1 28.5212 45.4747 20.0178 -3.34143
110 1 21.0809 46.5838 20.9234 -3.3648
118 2 23.561 47.6929 21.829 -3.36246
119 1 22.7343 50.2809 20.9234 -3.36812
122 1 26.0411 46.5838 20.9234 -3.3648
123 1 25.2144 46.9535 18.2065 -3.26671
124 1 25.2144 49.1718 20.0178 -3.36749
126 1 22.7343 48.0627 19.1122 -3.32856
121 2 28.5212 47.6929 21.829 -3.36246
125 1 27.6945 48.0627 19.1122 -3.32856
128 1 30.1747 46.9535 18.2065 -3.26671
132 1 30.1747 49.1718 20.0178 -3.36749
134 1 27.6945 50.2809 20.9234 -3.36812
130 2 25.2144 51.3901 21.829 -3.36438
131 1 24.3877 53.9781 20.9234 -3.36823
136 1 26.8678 52.8689 20.0178 -3.36594
138 1 24.3877 51.7598 19.1122 -3.34283
141 2 26.8678 55.0872 21.829 -3.36181
133 2 30.1747 51.3901 21.829 -3.36438
137 1 29.3479 51.7598 19.1122 -3.34283
144 1 29.3479 53.9781 20.9234 -3.36823
142 1 31.8281 52.8689 20.0178 -3.36594
143 2 31.8281 55.0872 21.829 -3.36181
