#Lammps coordinate file for CSL - Axis: [1 1 1]  Angle: (1, 3) -> 59.99999999999999  Plane indices: [0 1 1]  z-position: [5.6836451853244885 17.050935555973464]  Repeats: 1 1 (3, 3) (black, white)  Fixed: 2.228  Boundary equiv: True
144 atoms

2 atom types

0.0 9.920433458271871 xlo xhi
0.0 11.091381789479609 ylo yhi
0.0 22.734580741297954 zlo zhi
4.9602167291359365 21.080921098827734 48.80207987371029 xy xz yz

Atoms

1 1 13.020568913981833 18.855349042115336 6.839252716211904
2 1 17.980785643117766 18.855349042115336 6.839252716211904
3 1 15.5006772785498 19.964487221063298 7.74486024709932
4 1 17.980785643117766 21.07362540001126 8.650467777986734
5 1 21.287596795875057 22.552476305275206 6.839252716211904
6 1 13.020568913981831 21.07362540001126 8.650467777986734
7 1 10.540460549413865 22.18276357895922 9.55607530887415
8 2 13.020568913981833 23.291901757907183 10.461682839761563
9 1 10.540460549413865 19.9644872210633 7.744860247099318
10 2 17.980785643117766 23.291901757907183 10.461682839761563
11 2 15.500677278549801 24.401039936855142 11.367290370648979
12 2 17.980785643117766 25.510178115803104 12.272897901536393
13 1 15.5006772785498 22.18276357895922 9.55607530887415
14 1 16.32738006673912 22.552476305275206 6.839252716211904
15 1 13.847271702171156 23.66161448422317 7.744860247099318
16 1 16.32738006673912 24.77075266317113 8.650467777986734
17 1 21.287596795875057 24.77075266317113 8.650467777986734
18 1 18.807488431307092 25.87989084211909 9.55607530887415
19 2 21.28759679587506 26.98902902106705 10.461682839761563
20 1 18.80748843130709 23.66161448422317 7.74486024709932
21 1 19.634191219496415 26.249603568435077 6.839252716211902
22 1 22.114299584064383 27.35874174738304 7.744860247099318
23 2 13.020568913981833 25.510178115803104 12.272897901536393
24 1 10.540460549413865 26.619316294751066 13.178505432423808
25 1 13.020568913981833 27.728454473699028 14.084112963311222
26 2 10.540460549413865 24.401039936855142 11.367290370648979
27 1 17.98078564311777 27.728454473699028 14.084112963311222
28 1 15.500677278549801 28.837592652646986 14.989720494198638
29 1 17.98078564311777 29.946730831594948 15.895328025086053
30 1 15.500677278549801 26.619316294751066 13.178505432423808
31 2 16.327380066739124 26.989029021067054 10.461682839761563
32 2 13.847271702171156 28.098167200015013 11.367290370648979
33 2 16.327380066739124 29.207305378962975 12.272897901536393
34 1 13.847271702171156 25.879890842119092 9.55607530887415
35 1 14.673974490360477 26.249603568435077 6.839252716211902
36 1 14.673974490360477 28.467879926331 8.650467777986734
37 2 21.28759679587506 29.207305378962975 12.272897901536393
38 1 18.807488431307092 30.316443557910937 13.178505432423808
39 1 21.28759679587506 31.4255817368589 14.084112963311224
40 2 18.807488431307092 28.098167200015013 11.367290370648979
41 1 19.634191219496415 28.467879926330998 8.650467777986734
42 1 17.154082854928447 29.577018105278963 9.55607530887415
43 2 19.634191219496415 30.68615628422692 10.461682839761563
44 1 17.154082854928447 27.35874174738304 7.744860247099318
45 2 22.114299584064383 31.795294463174884 11.367290370648977
46 1 22.114299584064383 29.57701810527896 9.55607530887415
47 1 13.020568913981833 29.94673083159495 15.895328025086052
48 1 10.540460549413867 28.83759265264699 14.989720494198638
49 1 16.327380066739124 31.4255817368589 14.084112963311222
50 1 13.847271702171158 32.53471991580686 14.989720494198638
51 1 16.327380066739124 33.64385809475482 15.895328025086053
52 1 13.847271702171156 30.316443557910937 13.178505432423808
53 2 14.673974490360479 30.68615628422692 10.461682839761563
54 2 14.673974490360479 32.90443264212284 12.272897901536393
55 1 21.28759679587506 33.64385809475482 15.895328025086052
56 1 18.807488431307092 32.53471991580686 14.98972049419864
57 2 19.634191219496415 32.90443264212284 12.272897901536393
58 1 17.154082854928447 34.01357082107081 13.178505432423808
59 1 19.634191219496415 35.12270900001877 14.084112963311224
60 2 17.154082854928447 31.795294463174884 11.367290370648979
61 1 22.11429958406438 36.23184717896673 14.989720494198636
62 1 22.114299584064376 34.0135708210708 13.178505432423808
63 1 14.673974490360479 35.12270900001877 14.08411296331122
64 1 14.673974490360479 37.34098535791469 15.895328025086052
65 1 19.634191219496415 37.34098535791469 15.89532802508605
66 1 17.154082854928447 36.23184717896673 14.989720494198638
67 1 0.0 2.218276357895922 1.8112150617748295
68 2 2.4801083645679682 1.109138178947962 0.9056075308874146
69 2 4.960216729135936 0.0 -1.6653345369377348e-16
70 2 0.0 0.0 0.0
71 1 0.0 6.654829073687768 5.6836451853244885
72 1 2.4801083645679682 3.327414536843884 2.7168225926622442
73 1 2.4801083645679682 5.545690894739806 4.528037654437075
74 1 4.960216729135936 4.436552715791845 3.622430123549659
75 1 0.0 4.436552715791845 3.622430123549659
76 1 1.6534055763786455 5.915403621055794 1.811215061774829
77 2 7.440325093703903 1.109138178947962 0.9056075308874145
78 1 7.440325093703903 3.327414536843884 2.7168225926622442
79 1 4.960216729135936 2.218276357895922 1.8112150617748293
80 2 4.133513940946613 4.806265442107832 0.9056075308874143
81 2 6.61362230551458 3.697127263159871 -5.551115123125783e-16
82 2 1.6534055763786455 3.697127263159871 -3.885780586188048e-16
83 1 1.6534055763786455 10.351956336847639 5.6836451853244885
84 1 7.440325093703903 5.545690894739806 4.528037654437075
85 1 4.960216729135936 6.654829073687768 5.6836451853244885
86 1 4.133513940946613 7.024541800003755 2.716822592662244
87 1 4.133513940946613 9.242818157899677 4.528037654437075
88 1 6.61362230551458 8.133679978951715 3.6224301235496585
89 1 1.6534055763786455 8.133679978951717 3.6224301235496585
90 1 3.306811152757291 9.612530884215664 1.8112150617748288
91 2 9.093730670082548 4.806265442107832 0.9056075308874142
92 1 9.093730670082547 7.024541800003755 2.716822592662244
93 1 6.61362230551458 5.915403621055793 1.8112150617748288
94 2 5.7869195173252574 8.503392705267704 0.9056075308874139
95 2 8.267027881893226 7.394254526319742 -9.992007221626409e-16
96 2 3.306811152757291 7.394254526319742 -7.771561172376096e-16
97 1 3.306811152757291 14.04908360000751 5.6836451853244885
98 1 9.093730670082547 9.242818157899677 4.528037654437075
99 1 6.613622305514581 10.351956336847639 5.6836451853244885
100 1 5.786919517325258 10.721669063163626 2.7168225926622434
101 1 5.786919517325258 12.939945421059548 4.528037654437073
102 1 8.267027881893226 11.830807242111586 3.622430123549658
103 1 3.306811152757291 11.830807242111588 3.622430123549658
104 2 10.747136246461192 8.503392705267704 0.9056075308874137
105 1 10.747136246461192 10.721669063163626 2.7168225926622434
106 1 8.267027881893226 9.612530884215664 1.8112150617748286
107 1 21.08092109882773 42.14725080002252 17.050935555973467
108 1 10.747136246461192 12.939945421059548 4.528037654437073
109 1 8.267027881893226 14.04908360000751 5.6836451853244885
110 1 21.08092109882773 46.58380351581437 20.923365679523123
111 1 23.561029463395695 43.25638897897049 18.20654308686088
112 1 23.5610294633957 45.47466533686641 20.01775814863571
113 1 26.041137827963663 44.36552715791845 19.112150617748295
114 1 21.08092109882773 44.36552715791845 19.112150617748295
115 1 22.734326675206376 45.84437806318239 17.050935555973464
116 1 28.521246192531628 43.25638897897049 18.20654308686088
117 1 26.041137827963663 42.14725080002252 17.050935555973464
118 2 23.5610294633957 47.692941694762325 21.82897321041054
119 1 22.734326675206376 50.28093077897424 20.923365679523123
120 1 28.521246192531628 45.47466533686641 20.017758148635707
121 2 28.521246192531635 47.692941694762325 21.82897321041054
122 1 26.041137827963666 46.58380351581437 20.923365679523126
123 1 25.21443503977434 46.95351624213036 18.20654308686088
124 1 25.214435039774344 49.17179260002628 20.01775814863571
125 1 27.694543404342312 48.06265442107832 19.112150617748295
126 1 22.734326675206376 48.06265442107832 19.112150617748295
127 1 24.38773225158502 49.54150532634226 17.050935555973464
128 1 30.17465176891028 46.95351624213036 18.20654308686088
129 1 27.694543404342312 45.84437806318239 17.050935555973464
130 2 25.214435039774344 51.390068957922196 21.82897321041054
131 1 24.38773225158502 53.97805804213411 20.923365679523123
132 1 30.17465176891028 49.17179260002628 20.017758148635707
133 2 30.17465176891028 51.390068957922196 21.82897321041054
134 1 27.694543404342312 50.28093077897424 20.923365679523126
135 1 26.86784061615299 50.65064350529023 18.20654308686088
136 1 26.86784061615299 52.86891986318615 20.01775814863571
137 1 29.347948980720957 51.75978168423819 19.112150617748295
138 1 24.38773225158502 51.75978168423819 19.112150617748295
139 1 31.828057345288926 50.65064350529023 18.20654308686088
140 1 29.347948980720957 49.54150532634226 17.050935555973464
141 2 26.86784061615299 55.08719622108208 21.82897321041054
142 1 31.828057345288926 52.86891986318615 20.017758148635707
143 2 31.828057345288926 55.08719622108208 21.82897321041054
144 1 29.347948980720957 53.97805804213411 20.923365679523126
