#Lammps coordinate file for CSL - Axis: [1 1 1]  Angle: (1, 3) -> 59.99999999999999  Plane indices: [0 1 1]  z-position: [4.9336451853244885 14.800935555973464]  Repeats: 1 1 (3, 3) (black, white)  Fixed: 2.228  Boundary equiv: True
144 atoms

2 atom types

0.0 9.920433458271871 xlo xhi
0.0 11.091381789479609 ylo yhi
0.0 19.734580741297954 zlo zhi
4.9602167291359365 26.041137827963666 40.48354353160058 xy xz yz

Atoms

1 1 15.500677278549801 14.696080871060484 5.339252716211904
2 1 20.460894007685734 14.696080871060483 5.339252716211904
3 1 17.98078564311777 15.805219050008443 6.24486024709932
4 1 20.460894007685734 16.914357228956405 7.150467777986734
5 1 23.767705160443025 18.39320813422035 5.339252716211904
6 1 15.5006772785498 16.914357228956405 7.150467777986734
7 1 13.020568913981833 18.023495407904367 8.05607530887415
8 2 15.500677278549801 19.13263358685233 8.961682839761563
9 1 13.020568913981833 15.805219050008446 6.244860247099318
10 2 20.460894007685734 19.13263358685233 8.961682839761563
11 2 17.98078564311777 20.241771765800287 9.867290370648979
12 2 20.460894007685734 21.35090994474825 10.772897901536393
13 1 17.98078564311777 18.023495407904367 8.05607530887415
14 1 18.80748843130709 18.39320813422035 5.339252716211904
15 1 16.327380066739124 19.502346313168314 6.244860247099318
16 1 18.80748843130709 20.611484492116276 7.150467777986734
17 1 23.767705160443025 20.611484492116276 7.150467777986734
18 1 21.28759679587506 21.720622671064238 8.05607530887415
19 2 23.76770516044303 22.829760850012196 8.961682839761563
20 1 21.287596795875057 19.502346313168314 6.24486024709932
21 1 22.114299584064383 22.090335397380223 5.339252716211902
22 1 24.59440794863235 23.199473576328185 6.244860247099318
23 2 15.500677278549801 21.35090994474825 10.772897901536393
24 1 13.020568913981833 22.46004812369621 11.678505432423808
25 1 15.500677278549801 23.569186302644173 12.584112963311222
26 2 13.020568913981833 20.24177176580029 9.867290370648979
27 1 20.460894007685738 23.569186302644173 12.584112963311222
28 1 17.98078564311777 24.67832448159213 13.489720494198638
29 1 20.460894007685738 25.787462660540093 14.395328025086053
30 1 17.98078564311777 22.46004812369621 11.678505432423808
31 2 18.807488431307092 22.8297608500122 8.961682839761563
32 2 16.327380066739124 23.938899028960158 9.867290370648979
33 2 18.807488431307092 25.04803720790812 10.772897901536393
34 1 16.327380066739124 21.720622671064238 8.05607530887415
35 1 17.154082854928447 22.090335397380223 5.339252716211902
36 1 17.154082854928447 24.308611755276146 7.150467777986734
37 2 23.76770516044303 25.04803720790812 10.772897901536393
38 1 21.28759679587506 26.157175386856082 11.678505432423808
39 1 23.76770516044303 27.266313565804044 12.584112963311224
40 2 21.28759679587506 23.938899028960158 9.867290370648979
41 1 22.114299584064383 24.308611755276143 7.150467777986734
42 1 19.634191219496415 25.41774993422411 8.05607530887415
43 2 22.114299584064383 26.526888113172067 8.961682839761563
44 1 19.634191219496415 23.199473576328185 6.244860247099318
45 2 24.59440794863235 27.63602629212003 9.867290370648977
46 1 24.59440794863235 25.417749934224105 8.05607530887415
47 1 15.500677278549801 25.787462660540097 14.395328025086052
48 1 13.020568913981835 24.678324481592135 13.489720494198638
49 1 18.807488431307092 27.266313565804044 12.584112963311222
50 1 16.327380066739124 28.375451744752002 13.489720494198638
51 1 18.807488431307092 29.484589923699964 14.395328025086053
52 1 16.327380066739124 26.157175386856082 11.678505432423808
53 2 17.154082854928447 26.526888113172067 8.961682839761563
54 2 17.154082854928447 28.74516447106799 10.772897901536393
55 1 23.76770516044303 29.484589923699964 14.395328025086052
56 1 21.28759679587506 28.375451744752002 13.48972049419864
57 2 22.114299584064383 28.74516447106799 10.772897901536393
58 1 19.634191219496415 29.854302650015953 11.678505432423808
59 1 22.114299584064383 30.963440828963915 12.584112963311224
60 2 19.634191219496415 27.63602629212003 9.867290370648979
61 1 24.594407948632348 32.07257900791188 13.489720494198636
62 1 24.594407948632345 29.85430265001595 11.678505432423808
63 1 17.154082854928447 30.963440828963915 12.58411296331122
64 1 17.154082854928447 33.181717186859835 14.395328025086052
65 1 22.114299584064383 33.181717186859835 14.39532802508605
66 1 19.634191219496415 32.07257900791188 13.489720494198638
67 1 0.0 2.218276357895923 1.8112150617748295
68 2 2.4801083645679682 1.109138178947961 0.9056075308874147
69 2 4.960216729135935 -8.881784197001252e-16 -2.220446049250313e-16
70 2 0.0 0.0 0.0
71 1 0.0 6.654829073687768 4.9336451853244885
72 1 2.4801083645679682 3.327414536843884 2.7168225926622442
73 1 2.4801083645679682 5.545690894739806 4.528037654437075
74 1 4.960216729135935 4.436552715791845 3.6224301235496585
75 1 0.0 4.436552715791845 3.6224301235496585
76 1 1.6534055763786455 5.915403621055794 1.811215061774829
77 2 7.440325093703903 1.109138178947961 0.9056075308874145
78 1 7.440325093703903 3.3274145368438837 2.7168225926622442
79 1 4.960216729135935 2.218276357895922 1.811215061774829
80 2 4.133513940946612 4.806265442107832 0.9056075308874143
81 2 6.61362230551458 3.6971272631598704 -5.551115123125783e-16
82 2 1.6534055763786455 3.697127263159871 -4.440892098500626e-16
83 1 1.6534055763786455 10.351956336847639 4.9336451853244885
84 1 7.440325093703903 5.545690894739806 4.528037654437075
85 1 4.960216729135935 6.654829073687768 4.9336451853244885
86 1 4.133513940946612 7.024541800003755 2.716822592662244
87 1 4.133513940946612 9.242818157899677 4.528037654437075
88 1 6.61362230551458 8.133679978951715 3.6224301235496585
89 1 1.6534055763786455 8.133679978951717 3.6224301235496585
90 1 3.306811152757291 9.612530884215664 1.811215061774829
91 2 9.093730670082548 4.806265442107832 0.9056075308874143
92 1 9.093730670082547 7.024541800003755 2.716822592662244
93 1 6.61362230551458 5.915403621055793 1.811215061774829
94 2 5.7869195173252574 8.503392705267704 0.9056075308874139
95 2 8.267027881893226 7.394254526319742 -9.992007221626409e-16
96 2 3.306811152757291 7.394254526319742 -7.771561172376096e-16
97 1 3.306811152757291 14.04908360000751 4.9336451853244885
98 1 9.093730670082547 9.242818157899677 4.528037654437075
99 1 6.613622305514581 10.351956336847639 4.9336451853244885
100 1 5.786919517325258 10.721669063163626 2.7168225926622434
101 1 5.786919517325258 12.939945421059548 4.528037654437073
102 1 8.267027881893226 11.830807242111586 3.6224301235496585
103 1 3.306811152757291 11.830807242111588 3.6224301235496585
104 2 10.747136246461192 8.503392705267704 0.9056075308874139
105 1 10.747136246461192 10.721669063163626 2.7168225926622434
106 1 8.267027881893226 9.612530884215664 1.8112150617748286
107 1 26.041137827963666 33.82871445791282 14.800935555973467
108 1 10.747136246461192 12.939945421059548 4.528037654437073
109 1 8.267027881893226 14.04908360000751 4.9336451853244885
110 1 26.041137827963666 38.26526717370466 17.923365679523123
111 1 28.52124619253163 34.937852636860775 15.20654308686088
112 1 28.521246192531635 37.1561289947567 17.01775814863571
113 1 31.001354557099603 36.04699081580874 16.112150617748295
114 1 26.041137827963666 36.04699081580874 16.112150617748295
115 1 27.694543404342312 37.52584172107269 14.800935555973464
116 1 33.481462921667564 34.937852636860775 15.20654308686088
117 1 31.001354557099603 33.82871445791282 14.800935555973464
118 2 28.521246192531635 39.37440535265262 18.82897321041054
119 1 27.694543404342312 41.962394436864535 17.923365679523123
120 1 33.481462921667564 37.1561289947567 17.017758148635707
121 2 33.48146292166757 39.37440535265262 18.82897321041054
122 1 31.001354557099603 38.26526717370466 17.923365679523126
123 1 30.17465176891028 38.634979900020646 15.20654308686088
124 1 30.17465176891028 40.85325625791658 17.01775814863571
125 1 32.65476013347825 39.74411807896861 16.112150617748295
126 1 27.694543404342312 39.74411807896861 16.112150617748295
127 1 29.347948980720957 41.22296898423256 14.800935555973464
128 1 35.13486849804622 38.634979900020646 15.20654308686088
129 1 32.65476013347825 37.52584172107269 14.800935555973464
130 2 30.17465176891028 43.071532615812494 18.82897321041054
131 1 29.347948980720957 45.659521700024406 17.923365679523123
132 1 35.13486849804622 40.85325625791657 17.017758148635707
133 2 35.13486849804622 43.071532615812494 18.82897321041054
134 1 32.65476013347825 41.962394436864535 17.923365679523126
135 1 31.828057345288926 42.332107163180524 15.20654308686088
136 1 31.828057345288926 44.55038352107645 17.01775814863571
137 1 34.308165709856894 43.44124534212848 16.112150617748295
138 1 29.347948980720957 43.44124534212848 16.112150617748295
139 1 36.78827407442486 42.332107163180524 15.20654308686088
140 1 34.308165709856894 41.22296898423256 14.800935555973464
141 2 31.828057345288926 46.76865987897237 18.82897321041054
142 1 36.78827407442486 44.55038352107644 17.017758148635707
143 2 36.78827407442486 46.76865987897237 18.82897321041054
144 1 34.308165709856894 45.659521700024406 17.923365679523126
