ITEM: TIMESTEP
110090
ITEM: NUMBER OF ATOMS
144
ITEM: BOX BOUNDS xy xz yz pp pp pp
0.0000000000000000e+00 2.9761300374815626e+01 4.9602167291359365e+00
0.0000000000000000e+00 5.9893461663189896e+01 1.4880650187407817e+01
0.0000000000000000e+00 2.4734580741297954e+01 4.8802079873710284e+01
ITEM: ATOMS id type x y z c_peatom
69 2 4.96022 4.38101e-16 0 -3.26575
70 2 0 0 0 -3.37933
81 2 6.61362 3.69713 0 -3.20515
82 2 11.5738 3.69713 0 -3.36828
80 2 4.13351 4.80627 0.905608 -3.27495
86 1 4.13249 6.87667 2.90875 -3.36035
88 1 6.56491 7.97813 3.92218 -3.3214
91 2 9.09373 4.80627 0.905608 -3.28982
92 1 9.08424 6.87777 2.92966 -3.316
93 1 6.61263 5.88739 1.90146 -3.258
94 2 5.78692 8.50339 0.905608 -3.3596
95 2 8.26703 7.39425 0 -3.38376
76 1 11.5755 5.838 1.93458 -3.38232
96 2 13.2272 7.39425 0 -3.35611
104 2 10.7471 8.50339 0.905608 -3.35579
89 1 11.5196 7.93695 3.9001 -3.29014
68 2 7.44033 12.2005 0.905608 -3.26115
100 1 5.79082 10.5872 2.81557 -3.28595
102 1 8.20815 11.6382 3.84057 -3.12263
106 1 8.27288 9.50254 1.93447 -3.32807
103 1 14.1878 12.1932 4.618 -3.08076
77 2 12.4005 12.2005 0.905608 -3.03954
90 1 13.2238 9.51073 1.9276 -3.29691
105 1 10.7552 10.577 2.95329 -3.00804
67 1 14.8688 13.1924 1.86101 -3.18249
72 1 7.49895 14.2276 2.7328 -3.18235
73 1 7.53758 16.166 4.68959 -3.3234
79 1 10.058 15.0503 3.6399 -2.99687
78 1 12.4942 16.0659 4.67939 -3.19922
75 1 14.9474 15.1118 3.76257 -3.20582
87 1 8.98952 20.2412 4.8416 -3.21616
98 1 13.9213 20.1271 4.96978 -3.2783
101 1 6.73924 13.3942 5.49146 -3.27739
108 1 11.5716 13.1173 5.67755 -2.99922
109 1 9.1884 14.4409 6.50342 -3.2559
35 1 6.68578 15.4232 7.50573 -3.322
71 1 7.50629 18.2236 6.59429 -3.30411
74 1 10.0058 17.1606 5.60918 -3.32201
97 1 14.1302 14.3383 6.54061 -3.31445
21 1 11.6607 15.4107 7.49452 -3.3554
85 1 12.4646 18.1355 6.60404 -3.28714
84 1 14.9651 17.147 5.68068 -3.32176
5 1 8.50148 22.6153 7.44327 -3.25686
9 1 7.45555 20.1665 8.61811 -3.27605
1 1 9.97073 19.2765 7.49563 -3.2699
6 1 9.9509 21.1857 9.57774 -3.26703
3 1 12.4364 20.3775 8.37252 -3.2413
14 1 13.8043 22.6261 6.83492 -3.17996
99 1 11.2913 21.5368 5.86461 -3.22871
2 1 14.9224 19.1704 7.60678 -3.26922
4 1 14.8814 21.263 9.48097 -3.27328
83 1 16.3629 21.1897 6.00431 -3.16749
44 1 14.1178 27.5939 8.46473 -3.32002
15 1 11.0498 23.6136 8.23483 -3.25722
16 1 13.3379 24.8395 9.37992 -3.29846
22 1 19.0717 27.5475 8.50416 -3.31986
17 1 18.3368 24.8288 9.38911 -3.31178
20 1 15.8598 23.7818 8.4691 -3.25723
36 1 11.6155 28.5864 9.49429 -3.33716
41 1 16.5769 28.6624 9.42566 -3.32164
7 1 7.46101 22.2822 10.4457 -3.33052
13 1 12.401 22.2614 10.4935 -3.28841
8 2 9.92043 23.2919 11.4617 -3.33413
26 2 7.44033 24.401 12.3673 -3.32526
10 2 14.8807 23.2919 11.4617 -3.32261
31 2 13.2272 26.989 11.4617 -3.33327
34 1 10.8063 25.8861 10.375 -3.32462
11 2 12.4005 24.401 12.3673 -3.35922
18 1 15.7754 25.9515 10.3789 -3.33867
19 2 18.1875 26.989 11.4617 -3.3395
32 2 10.7471 28.0982 12.3673 -3.3574
33 2 13.2272 29.2073 13.2729 -3.34889
42 1 14.0828 29.6427 10.4466 -3.34434
52 1 10.7303 30.2 14.3378 -3.34628
53 2 11.5738 30.6862 11.4617 -3.3421
60 2 14.0539 31.7953 12.3673 -3.35132
37 2 18.1875 29.2073 13.2729 -3.34083
38 1 15.6989 30.2384 14.307 -3.34671
40 2 15.7074 28.0982 12.3673 -3.34822
43 2 16.5341 30.6862 11.4617 -3.33781
45 2 19.0142 31.7953 12.3673 -3.34288
46 1 19.0199 29.6815 10.4189 -3.33685
23 2 14.8807 36.6016 13.2729 -3.27017
54 2 11.5738 32.9044 13.2729 -3.34058
58 1 14.0389 33.931 14.3105 -3.29678
12 2 19.8409 36.6016 13.2729 -3.34399
57 2 16.5341 32.9044 13.2729 -3.34941
62 1 18.9726 33.916 14.3155 -3.36342
30 1 17.3427 37.6599 14.2382 -3.25013
24 1 22.3076 37.6073 14.284 -3.28184
49 1 13.1951 31.2542 15.2813 -3.35142
39 1 18.1645 31.2564 15.3033 -3.32403
66 1 13.1906 36.576 17.0224 -3.13807
50 1 10.7114 32.3472 16.2473 -3.32857
59 1 16.4607 35.0345 15.2981 -3.19806
61 1 18.9631 36.129 16.1056 -3.26031
56 1 15.6985 32.3144 16.2566 -3.31553
63 1 21.4589 35.0191 15.1721 -3.30194
127 1 13.2154 38.7987 18.9497 -3.32545
25 1 14.8412 38.6041 15.2799 -3.21298
107 1 14.8151 40.6633 17.2165 -3.3309
28 1 17.3102 39.6488 16.2562 -3.26694
65 1 15.7785 37.6033 17.9981 -3.16418
140 1 18.1522 38.8296 18.9827 -3.24199
135 1 15.6588 39.8421 19.9256 -3.34698
29 1 19.7873 40.6508 17.1778 -3.31172
27 1 19.8144 38.6895 15.1905 -3.28405
48 1 22.2746 39.5804 16.2413 -3.29542
64 1 20.5816 37.7561 17.9317 -3.21213
114 1 14.8596 42.7849 19.1371 -3.02133
51 1 18.1733 44.5338 17.127 -3.1024
111 1 17.3021 41.731 18.1664 -3.19582
115 1 15.7695 45.8707 17.9394 -2.91912
117 1 19.7705 42.7188 19.0614 -3.1952
47 1 22.2625 41.6717 18.1294 -3.32758
55 1 23.1345 44.5187 17.2225 -3.30542
129 1 20.608 45.5682 18.2415 -3.14842
128 1 23.0881 46.9211 18.9592 -3.01818
139 1 20.6385 39.8814 19.9231 -3.32893
112 1 17.3637 45.5474 21.9185 -2.98935
113 1 19.862 44.6095 21.0407 -3.15835
116 1 22.2875 43.7385 19.9597 -3.15688
120 1 22.3621 45.6539 21.8983 -3.14677
123 1 18.9933 47.2067 19.9737 -3.18903
110 1 14.8977 46.6617 22.8666 -3.15284
118 2 17.3608 47.6929 23.829 -3.39484
119 1 16.5238 50.3663 22.8156 -3.37501
124 1 18.9746 49.3276 21.8669 -3.3677
126 1 16.4781 48.2656 20.879 -3.15101
122 1 19.8429 46.7002 22.8427 -3.37999
121 2 22.321 47.6929 23.829 -3.36988
125 1 21.4569 48.261 20.932 -3.27897
132 1 23.9414 49.3205 21.8707 -3.29296
134 1 21.4799 50.3533 22.8231 -3.37196
138 1 18.1476 52.0139 20.8967 -3.33279
130 2 19.0142 51.3901 23.829 -3.28234
131 1 18.1538 54.0531 22.8521 -3.29663
137 1 23.1135 51.9774 20.9391 -3.26606
133 2 23.9744 51.3901 23.829 -3.37698
136 1 20.6216 52.9487 21.9539 -3.18992
141 2 20.6676 55.0872 23.829 -3.29096
144 1 23.141 54.019 22.8936 -3.28268
142 1 25.6031 53.0215 21.8737 -3.34872
143 2 25.6278 55.0872 23.829 -3.38551
