ITEM: TIMESTEP
100000
ITEM: NUMBER OF ATOMS
144
ITEM: BOX BOUNDS xy xz yz pp pp pp
0.0000000000000000e+00 2.7281192010247654e+01 4.9602167291359365e+00
0.0000000000000000e+00 5.7120616215819993e+01 1.2400541822839847e+01
0.0000000000000000e+00 2.0734580741297954e+01 4.6029234426340381e+01
ITEM: ATOMS id type x y z c_peatom
70 2 0 0 0 -3.33992
69 2 4.96022 4.92923e-16 0 -3.33992
81 2 6.61362 3.69713 0 -3.35978
82 2 11.5738 3.69713 0 -3.35978
80 2 4.13351 4.80627 0.905608 -3.32892
86 1 3.99173 6.76517 2.64898 -3.24102
91 2 9.09373 4.80627 0.905608 -3.32892
92 1 8.95194 6.76517 2.64898 -3.24102
93 1 6.5304 5.85575 1.75567 -3.35002
94 2 5.78692 8.50339 0.905608 -3.29265
95 2 8.26703 7.39425 0 -3.35978
76 1 11.4906 5.85575 1.75567 -3.35002
96 2 13.2272 7.39425 0 -3.35978
104 2 10.7471 8.50339 0.905608 -3.29265
68 2 7.44033 12.2005 0.905608 -3.28344
100 1 5.88461 10.6147 2.4493 -3.18676
101 1 5.81333 12.6088 4.1982 -3.26622
102 1 8.28906 11.6923 3.26285 -3.16722
106 1 8.31555 9.38314 1.95109 -3.33563
77 2 12.4005 12.2005 0.905608 -3.28344
90 1 13.2758 9.38314 1.95109 -3.33563
103 1 13.2493 11.6923 3.26285 -3.16722
105 1 10.8448 10.6147 2.4493 -3.18676
108 1 10.7735 12.6088 4.1982 -3.26622
72 1 7.43703 14.2817 2.55549 -3.27642
73 1 7.39598 16.1834 4.31423 -3.2757
109 1 8.23667 13.3977 5.18113 -3.26926
74 1 9.89586 15.1847 3.48194 -3.30967
78 1 12.3973 14.2817 2.55549 -3.27642
79 1 9.92442 13.2618 1.6448 -3.32776
84 1 12.3562 16.1834 4.31423 -3.2757
97 1 13.1969 13.3977 5.18113 -3.26926
67 1 14.8846 13.2618 1.6448 -3.32776
75 1 14.8561 15.1847 3.48194 -3.30967
87 1 8.42982 19.2638 4.83338 -3.11334
88 1 11.1382 19.038 3.62784 -3.31828
98 1 13.39 19.2638 4.83338 -3.11334
99 1 9.7854 21.2882 4.70917 -2.99928
89 1 16.0984 19.038 3.62784 -3.31828
83 1 14.7456 21.2882 4.70917 -2.99928
1 1 7.34164 17.5507 6.43414 -2.95721
35 1 5.69588 14.2942 6.13684 -3.27167
2 1 12.3019 17.5507 6.43414 -2.95721
21 1 10.6561 14.2942 6.13684 -3.27167
85 1 9.84976 17.022 5.36091 -3.32634
71 1 14.81 17.022 5.36091 -3.32634
6 1 8.49747 19.8082 7.65213 -3.32895
7 1 6.16664 20.8926 8.64419 -3.27028
8 2 8.68038 21.9055 9.46168 -3.3524
3 1 10.8082 19.524 6.41508 -3.12503
4 1 13.4577 19.8082 7.65213 -3.32895
10 2 13.6406 21.9055 9.46168 -3.3524
13 1 11.1269 20.8926 8.64419 -3.27028
14 1 12.2473 21.7657 5.75946 -3.33951
9 1 15.7685 19.524 6.41508 -3.12503
5 1 17.2075 21.7657 5.75946 -3.33951
15 1 9.71568 22.6078 6.91916 -3.29844
16 1 12.1351 23.5585 7.75954 -3.31384
31 2 11.9872 25.6026 9.46168 -3.35429
34 1 9.58287 24.5943 8.6904 -3.29232
44 1 13.0805 26.2411 7.03096 -3.23948
17 1 17.0954 23.5585 7.75954 -3.31384
18 1 14.5431 24.5943 8.6904 -3.29232
19 2 16.9474 25.6026 9.46168 -3.35429
20 1 14.6759 22.6078 6.91916 -3.29844
22 1 18.0407 26.2411 7.03096 -3.23948
36 1 10.468 27.2682 7.89575 -3.21486
42 1 12.9175 28.2507 8.8462 -3.20019
53 2 10.3338 29.2997 9.46168 -3.28026
41 1 15.4282 27.2682 7.89575 -3.21486
43 2 15.294 29.2997 9.46168 -3.28026
46 1 17.8778 28.2507 8.8462 -3.20019
32 2 9.50708 26.7117 10.3673 -3.28342
33 2 11.9872 27.8209 11.2729 -3.28026
49 1 11.853 29.8525 12.8388 -3.21486
52 1 9.40343 28.87 11.8884 -3.20019
60 2 12.8139 30.4089 10.3673 -3.28342
37 2 16.9474 27.8209 11.2729 -3.28026
38 1 14.3636 28.87 11.8884 -3.20019
39 1 16.8132 29.8525 12.8388 -3.21486
40 2 14.4673 26.7117 10.3673 -3.28342
45 2 17.7741 30.4089 10.3673 -3.28342
50 1 9.24049 30.8795 13.7036 -3.23948
54 2 10.3338 31.518 11.2729 -3.35429
58 1 12.7381 32.5263 12.0442 -3.29232
63 1 10.1858 33.5621 12.975 -3.31384
66 1 12.6053 34.5128 13.8154 -3.29844
11 2 16.1207 34.106 10.3673 -3.32662
56 1 14.2007 30.8795 13.7036 -3.23948
57 2 15.294 31.518 11.2729 -3.35429
59 1 15.146 33.5621 12.975 -3.31384
61 1 17.5655 34.5128 13.8154 -3.29844
62 1 17.6983 32.5263 12.0442 -3.29232
26 2 21.0809 34.106 10.3673 -3.32662
64 1 10.0737 35.3549 14.9751 -3.33951
23 2 13.6406 35.2151 11.2729 -3.3524
48 1 11.5127 37.5966 14.3195 -3.12503
25 1 13.8235 37.3124 13.0825 -3.32895
28 1 16.4729 37.5966 14.3195 -3.12503
30 1 16.1543 36.228 12.0904 -3.27028
65 1 15.0339 35.3549 14.9751 -3.33951
12 2 18.6008 35.2151 11.2729 -3.3524
24 1 21.1146 36.228 12.0904 -3.27028
27 1 18.7837 37.3124 13.0825 -3.32895
107 1 12.4712 40.0986 15.3737 -3.32634
47 1 14.9793 39.5699 14.3004 -2.95721
51 1 16.6251 42.8265 14.5977 -3.27167
117 1 17.4314 40.0986 15.3737 -3.32634
29 1 19.9395 39.5699 14.3004 -2.95721
55 1 21.5853 42.8265 14.5977 -3.27167
127 1 12.5356 35.8324 16.0254 -2.99928
138 1 11.1828 38.0826 17.1067 -3.31828
135 1 13.8912 37.8568 15.9012 -3.11334
140 1 17.4958 35.8324 16.0254 -2.99928
137 1 16.143 38.0826 17.1067 -3.31828
139 1 18.8514 37.8568 15.9012 -3.11334
110 1 12.3966 43.8588 19.0898 -3.32776
114 1 12.4251 41.9359 17.2526 -3.30967
111 1 14.925 40.9372 16.4204 -3.2757
112 1 14.8839 42.8389 18.1791 -3.27642
113 1 17.3853 41.9359 17.2526 -3.30967
115 1 14.0843 43.7229 15.5535 -3.26926
122 1 17.3568 43.8588 19.0898 -3.32776
116 1 19.8852 40.9372 16.4204 -3.2757
120 1 19.8442 42.8389 18.1791 -3.27642
129 1 19.0445 43.7229 15.5535 -3.26926
118 2 14.8807 44.9201 19.829 -3.28344
119 1 14.0054 47.7375 18.7835 -3.33563
123 1 16.5076 44.5119 16.5364 -3.26622
124 1 16.4364 46.506 18.2853 -3.18676
126 1 14.0319 45.4283 17.4717 -3.16722
121 2 19.8409 44.9201 19.829 -3.28344
125 1 18.9921 45.4283 17.4717 -3.16722
128 1 21.4679 44.5119 16.5364 -3.26622
132 1 21.3966 46.506 18.2853 -3.18676
134 1 18.9656 47.7375 18.7835 -3.33563
130 2 16.5341 48.6172 19.829 -3.29265
131 1 15.7906 51.2649 18.9789 -3.35002
141 2 18.1875 52.3144 19.829 -3.32892
133 2 21.4943 48.6172 19.829 -3.29265
136 1 18.3292 50.3554 18.0856 -3.24102
144 1 20.7508 51.2649 18.9789 -3.35002
142 1 23.2895 50.3554 18.0856 -3.24102
143 2 23.1477 52.3144 19.829 -3.32892
