ITEM: TIMESTEP
100000
ITEM: NUMBER OF ATOMS
144
ITEM: BOX BOUNDS xy xz yz pp pp pp
0.0000000000000000e+00 2.1080921098827734e+01 4.9602167291359365e+00
0.0000000000000000e+00 4.8802079873710284e+01 6.2002709114199250e+00
0.0000000000000000e+00 1.9734580741297954e+01 3.7710698084230678e+01
ITEM: ATOMS id type x y z c_peatom
69 2 4.96022 4.24304e-16 0 -3.32299
70 2 0 0 0 -3.32299
81 2 6.61362 3.69713 0 -3.24079
82 2 11.5738 3.69713 0 -3.24079
80 2 4.13351 4.80627 0.905608 -3.26188
86 1 3.90202 6.83825 2.64806 -3.29283
88 1 6.21934 7.40557 3.71426 -3.25072
91 2 9.09373 4.80627 0.905608 -3.26188
92 1 8.86223 6.83825 2.64806 -3.29283
93 1 6.57991 5.89611 1.62991 -3.23543
94 2 5.78692 8.50339 0.905608 -3.25208
95 2 8.26703 7.39425 0 -3.24079
76 1 11.5401 5.89611 1.62991 -3.23543
89 1 11.1796 7.40557 3.71426 -3.25072
96 2 13.2272 7.39425 0 -3.24079
104 2 10.7471 8.50339 0.905608 -3.25208
87 1 3.8165 9.25527 4.20577 -3.24246
90 1 3.38903 9.45878 1.55763 -3.13218
103 1 3.74364 11.5789 2.97486 -3.06839
68 2 7.44033 12.2005 0.905608 -3.32646
98 1 8.77671 9.25527 4.20577 -3.24246
100 1 6.12408 10.2042 2.88674 -3.33093
101 1 6.12185 12.7435 3.5656 -3.09307
102 1 8.70386 11.5789 2.97486 -3.06839
106 1 8.34925 9.45878 1.55763 -3.13218
77 2 12.4005 12.2005 0.905608 -3.32646
105 1 11.0843 10.2042 2.88674 -3.33093
108 1 11.0821 12.7435 3.5656 -3.09307
97 1 3.6775 13.5445 4.58813 -3.18407
72 1 7.57796 14.4494 2.35027 -3.18607
73 1 7.28247 15.948 4.57509 -3.29398
74 1 10.0797 15.3529 3.13556 -3.06848
79 1 9.95274 13.3122 1.45709 -3.08463
109 1 8.63772 13.5445 4.58813 -3.18407
67 1 14.913 13.3122 1.45709 -3.08463
75 1 15.0399 15.3529 3.13556 -3.06848
78 1 12.5382 14.4494 2.35027 -3.18607
84 1 12.2427 15.948 4.57509 -3.29398
83 1 2.39536 11.3044 5.16942 -2.89668
99 1 7.35558 11.3044 5.16942 -2.89668
7 1 3.30878 16.9044 7.93544 -3.37362
9 1 3.43387 14.4744 6.87066 -3.08348
5 1 4.77525 16.0989 5.37447 -2.92538
1 1 6.02931 13.6787 5.93158 -3.2786
3 1 8.39409 14.4744 6.87066 -3.08348
6 1 5.89284 15.6162 7.56874 -3.05107
13 1 8.26899 16.9044 7.93544 -3.37362
14 1 9.73547 16.0989 5.37447 -2.92538
2 1 10.9895 13.6787 5.93158 -3.2786
4 1 10.8531 15.6162 7.56874 -3.05107
8 2 5.58024 17.7462 8.96168 -3.19766
10 2 10.5405 17.7462 8.96168 -3.19766
15 1 6.13115 18.0111 6.5115 -3.16689
16 1 8.79113 19.6769 7.14533 -3.22891
31 2 8.88705 21.4433 8.96168 -3.26886
34 1 6.32911 20.3565 8.18179 -3.28902
35 1 6.2717 20.2435 5.55483 -3.06287
85 1 8.50086 18.1775 5.26003 -2.96873
17 1 13.7514 19.6769 7.14533 -3.22891
18 1 11.2893 20.3565 8.18179 -3.28902
19 2 13.8473 21.4433 8.96168 -3.26886
20 1 11.0914 18.0111 6.5115 -3.16689
21 1 11.2319 20.2435 5.55483 -3.06287
71 1 13.4611 18.1775 5.26003 -2.96873
44 1 9.75188 22.33 6.19767 -3.32495
36 1 7.30777 22.9086 7.50741 -3.07053
42 1 9.79893 24.0085 8.33474 -3.24884
53 2 7.23365 25.1405 8.96168 -3.16571
22 1 14.7121 22.33 6.19767 -3.32495
41 1 12.268 22.9086 7.50741 -3.07053
43 2 12.1939 25.1405 8.96168 -3.16571
46 1 14.7592 24.0085 8.33474 -3.24884
26 2 3.10014 18.8553 9.86729 -3.34964
11 2 8.06035 18.8553 9.86729 -3.34964
32 2 6.40695 22.5525 9.86729 -3.29612
33 2 8.88705 23.6616 10.7729 -3.16571
49 1 8.81294 25.8935 12.2272 -3.07053
52 1 6.32177 24.7936 11.3998 -3.24884
60 2 9.71376 26.2496 9.86729 -3.29612
50 1 6.36882 26.4721 13.5369 -3.32495
37 2 13.8473 23.6616 10.7729 -3.16571
38 1 11.282 24.7936 11.3998 -3.24884
39 1 13.7732 25.8935 12.2272 -3.07053
40 2 11.3672 22.5525 9.86729 -3.29612
45 2 14.674 26.2496 9.86729 -3.29612
56 1 11.329 26.4721 13.5369 -3.32495
51 1 9.849 28.5586 14.1797 -3.06287
54 2 7.23365 27.3587 10.7729 -3.26886
58 1 9.79159 28.4456 11.5528 -3.28902
63 1 7.32957 29.1251 12.5892 -3.22891
66 1 9.98956 30.791 13.2231 -3.16689
107 1 7.61985 30.6246 14.4746 -2.96873
55 1 14.8092 28.5586 14.1797 -3.06287
57 2 12.1939 27.3587 10.7729 -3.26886
59 1 12.2898 29.1251 12.5892 -3.22891
61 1 14.9498 30.791 13.2231 -3.16689
62 1 14.7518 28.4456 11.5528 -3.28902
117 1 12.5801 30.6246 14.4746 -2.96873
25 1 10.2279 33.1859 12.1658 -3.05107
47 1 10.0914 35.1233 13.803 -3.2786
12 2 15.5007 31.0559 10.7729 -3.19766
23 2 10.5405 31.0559 10.7729 -3.19766
27 1 15.1881 33.1859 12.1658 -3.05107
28 1 12.6868 34.3276 12.8639 -3.08348
30 1 12.8119 31.8977 11.7991 -3.37362
65 1 11.3455 32.7032 14.3601 -2.92538
29 1 15.0516 35.1233 13.803 -3.2786
64 1 16.3057 32.7032 14.3601 -2.92538
24 1 17.7721 31.8977 11.7991 -3.37362
48 1 17.647 34.3276 12.8639 -3.08348
140 1 13.7253 37.4977 14.5652 -2.89668
127 1 18.6856 37.4977 14.5652 -2.89668
111 1 8.83823 32.8541 15.1595 -3.29398
112 1 8.54274 34.3527 17.3843 -3.18607
114 1 6.04103 33.4492 16.599 -3.06848
110 1 6.16797 35.4899 18.2775 -3.08463
129 1 12.4432 35.2576 15.1464 -3.18407
113 1 11.0012 33.4492 16.599 -3.06848
116 1 13.7984 32.8541 15.1595 -3.29398
120 1 13.503 34.3527 17.3843 -3.18607
122 1 11.1282 35.4899 18.2775 -3.08463
115 1 17.4034 35.2576 15.1464 -3.18407
118 2 8.68038 36.6016 18.829 -3.32646
123 1 9.99885 36.0585 16.169 -3.09307
124 1 9.99662 38.5979 16.8478 -3.33093
121 2 13.6406 36.6016 18.829 -3.32646
125 1 12.3771 37.2232 16.7597 -3.06839
128 1 14.9591 36.0585 16.169 -3.09307
132 1 14.9568 38.5979 16.8478 -3.33093
134 1 12.7317 39.3433 18.1769 -3.13218
135 1 12.3042 39.5468 15.5288 -3.24246
119 1 17.6919 39.3433 18.1769 -3.13218
126 1 17.3373 37.2232 16.7597 -3.06839
139 1 17.2644 39.5468 15.5288 -3.24246
130 2 10.3338 40.2987 18.829 -3.25208
131 1 9.54079 42.906 18.1047 -3.23543
138 1 9.90137 41.3965 16.0203 -3.25072
133 2 15.294 40.2987 18.829 -3.25208
136 1 12.2187 41.9638 17.0865 -3.29283
137 1 14.8616 41.3965 16.0203 -3.25072
141 2 11.9872 43.9958 18.829 -3.26188
144 1 14.501 42.906 18.1047 -3.23543
142 1 17.1789 41.9638 17.0865 -3.29283
143 2 16.9474 43.9958 18.829 -3.26188
