LAMMPS (29 Aug 2024 - Update 2)
#---------------------------------------------------------------------------------------------------
# Initilise important features of simulation
#---------------------------------------------------------------------------------------------------
units 		metal	# Use metals units (Ang, ps, eV, bar, etc.)
dimension 	3		# Run the simulation in three dimensions
boundary 	p p p	# Use periodic boundaries in all three dimensions
atom_style 	atomic	#
#box tilt large		# Allow larger than normal tilt factors

variable T_start equal 600
variable T_end equal 200
variable tstep equal 0.002
timestep ${tstep}
timestep 0.002

read_data   lammps.txt	# Read in atom coordinates from a file
Reading data file ...
  triclinic box = (0 0 0) to (9.9204335 11.091382 20.734581) with tilt (4.9602167 12.400542 32.165007)
WARNING: Triclinic box skew is large. LAMMPS will run inefficiently. (src/domain.cpp:221)
  1 by 1 by 1 MPI processor grid
  reading atoms ...
  144 atoms
  read_data CPU = 0.001 seconds

#---------------------------------------------------------------------------------------------------
# Define how the forces between the atoms will be modelled
#---------------------------------------------------------------------------------------------------
pair_style eam/alloy
pair_coeff * * Zope-Ti-Al-2003.eam.alloy.txt Al Al

#---------------------------------------------------------------------------------------------------
# Set behaviour of simulation
#---------------------------------------------------------------------------------------------------
group g_fixed type 2
36 atoms in group g_fixed
group g_other type 1
108 atoms in group g_other
fix f_freeze g_fixed setforce 0.0 0.0 0.0 	# Hold atoms of type 2 fixed in place
#fix f_constrain g_other setforce 0.0 0.0 NULL 	# All atoms of type 1 to move only in z direction

#---------------------------------------------------------------------------------------------------
# Specify what information to write out
#---------------------------------------------------------------------------------------------------
thermo_style custom step atoms temp pe ke etotal fmax
thermo_modify format 6 %20.10f
thermo 1000

#compute statom all stress/atom NULL
compute peatom all pe/atom
dump 1 all custom 100000 dump.* id type x y z c_peatom
dump_modify 1 first yes


#---------------------------------------------------------------------------------------------------
# Initial relaxation
#---------------------------------------------------------------------------------------------------
velocity all set 0.0 0.0 0.0

min_style 	cg
min_modify dmax 0.1
minimize 	0.0 1.0e-6 10000 100000
Neighbor list info ...
  update: every = 1 steps, delay = 0 steps, check = yes
  max neighbors/atom: 2000, page size: 100000
  master list distance cutoff = 8.724884
  ghost atom cutoff = 8.724884
  binsize = 4.362442, bins = 7 10 5
  1 neighbor lists, perpetual/occasional/extra = 1 0 0
  (1) pair eam/alloy, perpetual
      attributes: half, newton on
      pair build: half/bin/atomonly/newton/tri
      stencil: half/bin/3d/tri
      bin: standard
Per MPI rank memory allocation (min/avg/max) = 4.693 | 4.693 | 4.693 Mbytes
   Step        Atoms         Temp          PotEng         KinEng         TotEng          Fmax     
         0         144   0             -409.8215       0                  -409.8214983237  15.412526    
        77         144   0             -471.94155      0                  -471.9415457922  1.1640561e-07
Loop time of 0.0148458 on 1 procs for 77 steps with 144 atoms

99.1% CPU use with 1 MPI tasks x no OpenMP threads

Minimization stats:
  Stopping criterion = force tolerance
  Energy initial, next-to-last, final = 
     -409.821498323654   -471.94154579224  -471.941545792239
  Force two-norm initial, final = 57.08344 9.2958062e-07
  Force max component initial, final = 15.412526 1.1640561e-07
  Final line search alpha, max atom move = 1 1.1640561e-07
  Iterations, force evaluations = 77 142

MPI task timing breakdown:
Section |  min time  |  avg time  |  max time  |%varavg| %total
---------------------------------------------------------------
Pair    | 0.01309    | 0.01309    | 0.01309    |   0.0 | 88.17
Neigh   | 0.00048588 | 0.00048588 | 0.00048588 |   0.0 |  3.27
Comm    | 0.00071108 | 0.00071108 | 0.00071108 |   0.0 |  4.79
Output  | 0          | 0          | 0          |   0.0 |  0.00
Modify  | 1.9834e-05 | 1.9834e-05 | 1.9834e-05 |   0.0 |  0.13
Other   |            | 0.0005393  |            |       |  3.63

Nlocal:            144 ave         144 max         144 min
Histogram: 1 0 0 0 0 0 0 0 0 0
Nghost:           2868 ave        2868 max        2868 min
Histogram: 1 0 0 0 0 0 0 0 0 0
Neighs:          12672 ave       12672 max       12672 min
Histogram: 1 0 0 0 0 0 0 0 0 0

Total # of neighbors = 12672
Ave neighs/atom = 88
Neighbor list builds = 1
Dangerous builds = 0
#---------------------------------------------------------------------------------------------------
# Anneal boundary structures
#---------------------------------------------------------------------------------------------------
reset_timestep 100000
fix md g_other nvt temp ${T_start} ${T_end} $(100.0*v_tstep)
fix md g_other nvt temp 600 ${T_end} $(100.0*v_tstep)
fix md g_other nvt temp 600 200 $(100.0*v_tstep)
fix md g_other nvt temp 600 200 0.2000000000000000111

velocity all create ${T_start} 4928459 rot yes mom yes dist gaussian
velocity all create 600 4928459 rot yes mom yes dist gaussian
run 10000
Per MPI rank memory allocation (min/avg/max) = 4.95 | 4.95 | 4.95 Mbytes
   Step        Atoms         Temp          PotEng         KinEng         TotEng          Fmax     
    100000         144   600           -471.94155      11.09052           -460.8510253512  1.1640562e-07
    101000         144   565.57849     -464.0278       10.454266          -453.5735383537  1.3357444    
    102000         144   593.34852     -463.27551      10.967573          -452.3079376793  1.7247566    
    103000         144   525.54564     -465.02473      9.7142912          -455.3104353945  1.3176184    
    104000         144   509.25298     -465.93537      9.4131343          -456.5222387331  1.4193841    
    105000         144   525.93434     -466.38752      9.7214759          -456.6660479662  1.1277279    
    106000         144   447.32838     -467.1915       8.2685075          -458.9229882668  1.1026336    
    107000         144   434.42379     -467.83222      8.0299766          -459.8022455118  1.1624519    
    108000         144   378.47055     -468.28731      6.9957256          -461.2915861874  1.200287     
    109000         144   353.01211     -468.75318      6.5251467          -462.2280352757  1.0340468    
    110000         144   334.11516     -469.72914      6.1758517          -463.5532920662  0.84324865   
Loop time of 0.974264 on 1 procs for 10000 steps with 144 atoms

Performance: 1773.646 ns/day, 0.014 hours/ns, 10264.154 timesteps/s, 1.478 Matom-step/s
97.8% CPU use with 1 MPI tasks x no OpenMP threads

MPI task timing breakdown:
Section |  min time  |  avg time  |  max time  |%varavg| %total
---------------------------------------------------------------
Pair    | 0.87852    | 0.87852    | 0.87852    |   0.0 | 90.17
Neigh   | 0.020271   | 0.020271   | 0.020271   |   0.0 |  2.08
Comm    | 0.051693   | 0.051693   | 0.051693   |   0.0 |  5.31
Output  | 7.9584e-05 | 7.9584e-05 | 7.9584e-05 |   0.0 |  0.01
Modify  | 0.011243   | 0.011243   | 0.011243   |   0.0 |  1.15
Other   |            | 0.01246    |            |       |  1.28

Nlocal:            144 ave         144 max         144 min
Histogram: 1 0 0 0 0 0 0 0 0 0
Nghost:           2928 ave        2928 max        2928 min
Histogram: 1 0 0 0 0 0 0 0 0 0
Neighs:          12635 ave       12635 max       12635 min
Histogram: 1 0 0 0 0 0 0 0 0 0

Total # of neighbors = 12635
Ave neighs/atom = 87.743056
Neighbor list builds = 40
Dangerous builds = 0
unfix md

#---------------------------------------------------------------------------------------------------
# Final relaxation
#---------------------------------------------------------------------------------------------------
velocity all set 0.0 0.0 0.0

min_style 	cg
min_modify dmax 0.1
minimize 	0.0 1.0e-6 10000 100000
Per MPI rank memory allocation (min/avg/max) = 6.075 | 6.075 | 6.075 Mbytes
   Step        Atoms         Temp          PotEng         KinEng         TotEng          Fmax     
    110000         144   0             -469.72914      0                  -469.7291437401  0.84324865   
    110059         144   0             -472.19074      0                  -472.1907432015  1.3768119e-07
Loop time of 0.0120576 on 1 procs for 59 steps with 144 atoms

98.1% CPU use with 1 MPI tasks x no OpenMP threads

Minimization stats:
  Stopping criterion = force tolerance
  Energy initial, next-to-last, final = 
     -469.729143740088   -472.19074320145  -472.190743201453
  Force two-norm initial, final = 4.9420107 7.8088687e-07
  Force max component initial, final = 0.84324865 1.3768119e-07
  Final line search alpha, max atom move = 1 1.3768119e-07
  Iterations, force evaluations = 59 117

MPI task timing breakdown:
Section |  min time  |  avg time  |  max time  |%varavg| %total
---------------------------------------------------------------
Pair    | 0.010873   | 0.010873   | 0.010873   |   0.0 | 90.18
Neigh   | 0          | 0          | 0          |   0.0 |  0.00
Comm    | 0.00058668 | 0.00058668 | 0.00058668 |   0.0 |  4.87
Output  | 0          | 0          | 0          |   0.0 |  0.00
Modify  | 1.654e-05  | 1.654e-05  | 1.654e-05  |   0.0 |  0.14
Other   |            | 0.0005811  |            |       |  4.82

Nlocal:            144 ave         144 max         144 min
Histogram: 1 0 0 0 0 0 0 0 0 0
Nghost:           2930 ave        2930 max        2930 min
Histogram: 1 0 0 0 0 0 0 0 0 0
Neighs:          12618 ave       12618 max       12618 min
Histogram: 1 0 0 0 0 0 0 0 0 0

Total # of neighbors = 12618
Ave neighs/atom = 87.625
Neighbor list builds = 0
Dangerous builds = 0

Total wall time: 0:00:01
