#Lammps coordinate file for CSL - Axis: [1 1 1]  Angle: (1, 3) -> 59.99999999999999  Plane indices: [0 1 1]  z-position: [4.9336451853244885 14.800935555973464]  Repeats: 1 1 (3, 3) (black, white)  Fixed: 2.228  Boundary equiv: True
144 atoms

2 atom types

0.0 9.920433458271871 xlo xhi
0.0 11.091381789479609 ylo yhi
0.0 19.734580741297954 zlo zhi
4.9602167291359365 22.320975281111714 40.48354353160058 xy xz yz

Atoms

1 1 13.640596005123825 14.696080871060484 5.339252716211904
2 1 18.60081273425976 14.696080871060483 5.339252716211904
3 1 16.120704369691794 15.805219050008443 6.24486024709932
4 1 18.60081273425976 16.914357228956405 7.150467777986734
5 1 21.90762388701705 18.39320813422035 5.339252716211904
6 1 13.640596005123824 16.914357228956405 7.150467777986734
7 1 11.160487640555857 18.023495407904367 8.05607530887415
8 2 13.640596005123825 19.13263358685233 8.961682839761563
9 1 11.160487640555857 15.805219050008446 6.244860247099318
10 2 18.60081273425976 19.13263358685233 8.961682839761563
11 2 16.120704369691794 20.241771765800287 9.867290370648979
12 2 18.60081273425976 21.35090994474825 10.772897901536393
13 1 16.120704369691794 18.023495407904367 8.05607530887415
14 1 16.947407157881113 18.39320813422035 5.339252716211904
15 1 14.467298793313148 19.502346313168314 6.244860247099318
16 1 16.947407157881113 20.611484492116276 7.150467777986734
17 1 21.90762388701705 20.611484492116276 7.150467777986734
18 1 19.427515522449085 21.720622671064238 8.05607530887415
19 2 21.907623887017053 22.829760850012196 8.961682839761563
20 1 19.42751552244908 19.502346313168314 6.24486024709932
21 1 20.254218310638407 22.090335397380223 5.339252716211902
22 1 22.734326675206376 23.199473576328185 6.244860247099318
23 2 13.640596005123825 21.35090994474825 10.772897901536393
24 1 11.160487640555857 22.46004812369621 11.678505432423808
25 1 13.640596005123825 23.569186302644173 12.584112963311222
26 2 11.160487640555857 20.24177176580029 9.867290370648979
27 1 18.600812734259762 23.569186302644173 12.584112963311222
28 1 16.120704369691794 24.67832448159213 13.489720494198638
29 1 18.600812734259762 25.787462660540093 14.395328025086053
30 1 16.120704369691794 22.46004812369621 11.678505432423808
31 2 16.947407157881116 22.8297608500122 8.961682839761563
32 2 14.467298793313148 23.938899028960158 9.867290370648979
33 2 16.947407157881116 25.04803720790812 10.772897901536393
34 1 14.467298793313148 21.720622671064238 8.05607530887415
35 1 15.294001581502469 22.090335397380223 5.339252716211902
36 1 15.294001581502469 24.308611755276146 7.150467777986734
37 2 21.907623887017053 25.04803720790812 10.772897901536393
38 1 19.427515522449085 26.157175386856082 11.678505432423808
39 1 21.907623887017053 27.266313565804044 12.584112963311224
40 2 19.427515522449085 23.938899028960158 9.867290370648979
41 1 20.254218310638407 24.308611755276143 7.150467777986734
42 1 17.77410994607044 25.41774993422411 8.05607530887415
43 2 20.254218310638407 26.526888113172067 8.961682839761563
44 1 17.77410994607044 23.199473576328185 6.244860247099318
45 2 22.734326675206376 27.63602629212003 9.867290370648977
46 1 22.734326675206376 25.417749934224105 8.05607530887415
47 1 13.640596005123825 25.787462660540097 14.395328025086052
48 1 11.160487640555859 24.678324481592135 13.489720494198638
49 1 16.947407157881116 27.266313565804044 12.584112963311222
50 1 14.46729879331315 28.375451744752002 13.489720494198638
51 1 16.947407157881116 29.484589923699964 14.395328025086053
52 1 14.467298793313148 26.157175386856082 11.678505432423808
53 2 15.29400158150247 26.526888113172067 8.961682839761563
54 2 15.29400158150247 28.74516447106799 10.772897901536393
55 1 21.907623887017053 29.484589923699964 14.395328025086052
56 1 19.427515522449085 28.375451744752002 13.48972049419864
57 2 20.254218310638407 28.74516447106799 10.772897901536393
58 1 17.77410994607044 29.854302650015953 11.678505432423808
59 1 20.254218310638407 30.963440828963915 12.584112963311224
60 2 17.77410994607044 27.63602629212003 9.867290370648979
61 1 22.734326675206372 32.07257900791188 13.489720494198636
62 1 22.73432667520637 29.85430265001595 11.678505432423808
63 1 15.29400158150247 30.963440828963915 12.58411296331122
64 1 15.29400158150247 33.181717186859835 14.395328025086052
65 1 20.254218310638407 33.181717186859835 14.39532802508605
66 1 17.77410994607044 32.07257900791188 13.489720494198638
67 1 0.0 2.218276357895923 1.8112150617748295
68 2 2.4801083645679682 1.109138178947961 0.9056075308874147
69 2 4.960216729135936 -8.881784197001252e-16 -2.220446049250313e-16
70 2 0.0 0.0 0.0
71 1 0.0 6.654829073687768 4.9336451853244885
72 1 2.4801083645679682 3.327414536843884 2.7168225926622442
73 1 2.4801083645679682 5.545690894739806 4.528037654437073
74 1 4.960216729135936 4.436552715791845 3.6224301235496585
75 1 0.0 4.436552715791845 3.6224301235496585
76 1 1.6534055763786455 5.915403621055794 1.811215061774829
77 2 7.440325093703903 1.109138178947961 0.9056075308874145
78 1 7.440325093703903 3.3274145368438837 2.7168225926622442
79 1 4.960216729135936 2.218276357895922 1.811215061774829
80 2 4.133513940946613 4.806265442107832 0.9056075308874143
81 2 6.61362230551458 3.6971272631598704 -5.551115123125783e-16
82 2 1.6534055763786455 3.697127263159871 -4.440892098500626e-16
83 1 1.6534055763786455 10.351956336847639 4.9336451853244885
84 1 7.440325093703903 5.545690894739806 4.528037654437073
85 1 4.960216729135936 6.654829073687768 4.9336451853244885
86 1 4.133513940946613 7.024541800003755 2.716822592662244
87 1 4.133513940946613 9.242818157899677 4.528037654437073
88 1 6.61362230551458 8.133679978951715 3.6224301235496585
89 1 1.6534055763786455 8.133679978951717 3.6224301235496585
90 1 3.306811152757291 9.612530884215664 1.811215061774829
91 2 9.093730670082548 4.806265442107832 0.9056075308874143
92 1 9.093730670082547 7.024541800003755 2.716822592662244
93 1 6.61362230551458 5.915403621055793 1.811215061774829
94 2 5.7869195173252574 8.503392705267704 0.9056075308874139
95 2 8.267027881893226 7.394254526319742 -9.992007221626409e-16
96 2 3.306811152757291 7.394254526319742 -7.771561172376096e-16
97 1 3.306811152757291 14.04908360000751 4.933645185324487
98 1 9.093730670082547 9.242818157899677 4.528037654437073
99 1 6.613622305514581 10.351956336847639 4.9336451853244885
100 1 5.786919517325258 10.721669063163626 2.7168225926622434
101 1 5.786919517325258 12.939945421059548 4.528037654437073
102 1 8.267027881893226 11.830807242111586 3.6224301235496585
103 1 3.306811152757291 11.830807242111588 3.6224301235496585
104 2 10.747136246461192 8.503392705267704 0.9056075308874139
105 1 10.747136246461192 10.721669063163626 2.7168225926622434
106 1 8.267027881893226 9.612530884215664 1.8112150617748286
107 1 22.320975281111714 33.82871445791282 14.800935555973467
108 1 10.747136246461192 12.939945421059548 4.528037654437073
109 1 8.267027881893226 14.04908360000751 4.933645185324487
110 1 22.320975281111714 38.26526717370466 17.923365679523123
111 1 24.80108364567968 34.937852636860775 15.20654308686088
112 1 24.801083645679682 37.1561289947567 17.01775814863571
113 1 27.28119201024765 36.04699081580874 16.112150617748295
114 1 22.320975281111714 36.04699081580874 16.112150617748295
115 1 23.97438085749036 37.52584172107269 14.800935555973464
116 1 29.76130037481561 34.937852636860775 15.20654308686088
117 1 27.28119201024765 33.82871445791282 14.800935555973464
118 2 24.801083645679682 39.37440535265262 18.82897321041054
119 1 23.97438085749036 41.962394436864535 17.923365679523123
120 1 29.76130037481561 37.1561289947567 17.017758148635707
121 2 29.76130037481562 39.37440535265262 18.82897321041054
122 1 27.28119201024765 38.26526717370466 17.923365679523126
123 1 26.454489222058324 38.634979900020646 15.20654308686088
124 1 26.454489222058328 40.85325625791658 17.01775814863571
125 1 28.934597586626296 39.74411807896861 16.112150617748295
126 1 23.97438085749036 39.74411807896861 16.112150617748295
127 1 25.627786433869005 41.22296898423256 14.800935555973464
128 1 31.414705951194264 38.634979900020646 15.20654308686088
129 1 28.934597586626296 37.52584172107269 14.800935555973464
130 2 26.454489222058328 43.071532615812494 18.82897321041054
131 1 25.627786433869005 45.659521700024406 17.923365679523123
132 1 31.414705951194264 40.85325625791657 17.017758148635707
133 2 31.414705951194264 43.071532615812494 18.82897321041054
134 1 28.934597586626296 41.962394436864535 17.923365679523126
135 1 28.107894798436973 42.332107163180524 15.20654308686088
136 1 28.107894798436973 44.55038352107645 17.01775814863571
137 1 30.58800316300494 43.44124534212848 16.112150617748295
138 1 25.627786433869005 43.44124534212848 16.112150617748295
139 1 33.06811152757291 42.332107163180524 15.20654308686088
140 1 30.58800316300494 41.22296898423256 14.800935555973464
141 2 28.107894798436973 46.76865987897237 18.82897321041054
142 1 33.06811152757291 44.55038352107644 17.017758148635707
143 2 33.06811152757291 46.76865987897237 18.82897321041054
144 1 30.58800316300494 45.659521700024406 17.923365679523126
