#Lammps coordinate file for CSL - Axis: [1 1 1]  Angle: (1, 3) -> 59.99999999999999  Plane indices: [0 1 1]  z-position: [5.4336451853244885 16.300935555973464]  Repeats: 1 1 (3, 3) (black, white)  Fixed: 2.228  Boundary equiv: True
144 atoms

2 atom types

0.0 9.920433458271871 xlo xhi
0.0 11.091381789479609 ylo yhi
0.0 21.734580741297954 zlo zhi
4.9602167291359365 23.5610294633957 37.71069808423067 xy xz yz

Atoms

1 1 14.260623096265817 13.309658147375533 6.339252716211904
2 1 19.22083982540175 13.309658147375531 6.339252716211904
3 1 16.740731460833786 14.418796326323491 7.24486024709932
4 1 19.22083982540175 15.527934505271453 8.150467777986734
5 1 22.52765097815904 17.0067854105354 6.339252716211904
6 1 14.260623096265816 15.527934505271453 8.150467777986734
7 1 11.78051473169785 16.637072684219415 9.05607530887415
8 2 14.260623096265817 17.746210863167377 9.961682839761563
9 1 11.78051473169785 14.418796326323495 7.244860247099319
10 2 19.22083982540175 17.746210863167377 9.961682839761563
11 2 16.740731460833786 18.855349042115336 10.867290370648979
12 2 19.22083982540175 19.964487221063298 11.772897901536393
13 1 16.740731460833786 16.637072684219415 9.05607530887415
14 1 17.567434249023105 17.0067854105354 6.339252716211904
15 1 15.08732588445514 18.115923589483362 7.244860247099319
16 1 17.567434249023105 19.225061768431324 8.150467777986734
17 1 22.52765097815904 19.225061768431324 8.150467777986734
18 1 20.047542613591077 20.334199947379286 9.05607530887415
19 2 22.527650978159045 21.443338126327244 9.961682839761563
20 1 20.047542613591073 18.115923589483362 7.24486024709932
21 1 20.8742454017804 20.70391267369527 6.339252716211903
22 1 23.354353766348368 21.813050852643233 7.244860247099318
23 2 14.260623096265817 19.964487221063298 11.772897901536393
24 1 11.78051473169785 21.07362540001126 12.678505432423808
25 1 14.260623096265817 22.18276357895922 13.584112963311222
26 2 11.78051473169785 18.85534904211534 10.867290370648979
27 1 19.220839825401754 22.18276357895922 13.584112963311222
28 1 16.740731460833786 23.29190175790718 14.489720494198638
29 1 19.220839825401754 24.401039936855142 15.395328025086053
30 1 16.740731460833786 21.07362540001126 12.678505432423808
31 2 17.56743424902311 21.443338126327248 9.961682839761563
32 2 15.08732588445514 22.552476305275206 10.867290370648979
33 2 17.56743424902311 23.66161448422317 11.772897901536393
34 1 15.08732588445514 20.334199947379286 9.05607530887415
35 1 15.914028672644461 20.70391267369527 6.339252716211903
36 1 15.914028672644461 22.922189031591195 8.150467777986734
37 2 22.527650978159045 23.66161448422317 11.772897901536393
38 1 20.047542613591077 24.77075266317113 12.678505432423808
39 1 22.527650978159045 25.879890842119092 13.584112963311224
40 2 20.047542613591077 22.552476305275206 10.867290370648979
41 1 20.8742454017804 22.92218903159119 8.150467777986734
42 1 18.39413703721243 24.031327210539157 9.05607530887415
43 2 20.8742454017804 25.140465389487115 9.961682839761563
44 1 18.39413703721243 21.813050852643233 7.244860247099319
45 2 23.354353766348368 26.249603568435077 10.867290370648977
46 1 23.354353766348368 24.031327210539153 9.05607530887415
47 1 14.260623096265817 24.401039936855145 15.395328025086052
48 1 11.780514731697851 23.291901757907183 14.489720494198638
49 1 17.56743424902311 25.879890842119092 13.584112963311222
50 1 15.087325884455142 26.98902902106705 14.489720494198638
51 1 17.56743424902311 28.098167200015013 15.395328025086053
52 1 15.08732588445514 24.77075266317113 12.678505432423808
53 2 15.914028672644463 25.140465389487115 9.961682839761563
54 2 15.914028672644463 27.35874174738304 11.772897901536393
55 1 22.527650978159045 28.098167200015013 15.395328025086052
56 1 20.047542613591077 26.98902902106705 14.48972049419864
57 2 20.8742454017804 27.35874174738304 11.772897901536393
58 1 18.39413703721243 28.467879926331 12.678505432423808
59 1 20.8742454017804 29.577018105278963 13.584112963311224
60 2 18.39413703721243 26.249603568435077 10.867290370648979
61 1 23.354353766348364 30.68615628422692 14.489720494198636
62 1 23.35435376634836 28.467879926330998 12.678505432423808
63 1 15.914028672644463 29.577018105278963 13.58411296331122
64 1 15.914028672644463 31.795294463174884 15.395328025086052
65 1 20.8742454017804 31.795294463174884 15.39532802508605
66 1 18.39413703721243 30.68615628422692 14.489720494198638
67 1 0.0 2.2182763578959226 1.8112150617748295
68 2 2.4801083645679682 1.109138178947961 0.9056075308874146
69 2 4.960216729135936 -8.881784197001252e-16 -1.9455644930253686e-16
70 2 0.0 0.0 0.0
71 1 0.0 6.654829073687768 5.4336451853244885
72 1 2.4801083645679682 3.327414536843884 2.7168225926622442
73 1 2.4801083645679682 5.545690894739806 4.528037654437074
74 1 4.960216729135936 4.436552715791845 3.622430123549659
75 1 0.0 4.436552715791845 3.622430123549659
76 1 1.6534055763786455 5.915403621055794 1.811215061774829
77 2 7.440325093703903 1.109138178947961 0.9056075308874145
78 1 7.440325093703903 3.3274145368438837 2.7168225926622442
79 1 4.960216729135936 2.218276357895922 1.8112150617748293
80 2 4.133513940946613 4.806265442107832 0.9056075308874143
81 2 6.61362230551458 3.6971272631598704 -5.836693479076105e-16
82 2 1.6534055763786455 3.697127263159871 -3.8911289860507373e-16
83 1 1.6534055763786455 10.351956336847639 5.4336451853244885
84 1 7.440325093703903 5.545690894739806 4.528037654437074
85 1 4.960216729135936 6.654829073687768 5.4336451853244885
86 1 4.133513940946613 7.024541800003755 2.716822592662244
87 1 4.133513940946613 9.242818157899677 4.528037654437074
88 1 6.61362230551458 8.133679978951715 3.6224301235496585
89 1 1.6534055763786455 8.133679978951717 3.6224301235496585
90 1 3.306811152757291 9.612530884215664 1.8112150617748288
91 2 9.093730670082548 4.806265442107832 0.9056075308874142
92 1 9.093730670082547 7.024541800003755 2.716822592662244
93 1 6.61362230551458 5.915403621055793 1.8112150617748288
94 2 5.7869195173252574 8.503392705267704 0.9056075308874139
95 2 8.267027881893226 7.394254526319742 -9.727822465126844e-16
96 2 3.306811152757291 7.394254526319742 -7.782257972101475e-16
97 1 3.306811152757291 14.04908360000751 5.433645185324488
98 1 9.093730670082547 9.242818157899677 4.528037654437074
99 1 6.613622305514581 10.351956336847639 5.4336451853244885
100 1 5.786919517325258 10.721669063163626 2.7168225926622434
101 1 5.786919517325258 12.939945421059548 4.528037654437073
102 1 8.267027881893226 11.830807242111586 3.622430123549658
103 1 3.306811152757291 11.830807242111588 3.622430123549658
104 2 10.747136246461192 8.503392705267704 0.9056075308874137
105 1 10.747136246461192 10.721669063163626 2.7168225926622434
106 1 8.267027881893226 9.612530884215664 1.8112150617748286
107 1 23.5610294633957 31.05586901054291 16.300935555973467
108 1 10.747136246461192 12.939945421059548 4.528037654437073
109 1 8.267027881893226 14.04908360000751 5.433645185324488
110 1 23.5610294633957 35.492421726334754 19.923365679523123
111 1 26.041137827963663 32.16500718949087 17.20654308686088
112 1 26.041137827963666 34.383283547386796 19.01775814863571
113 1 28.521246192531635 33.27414536843884 18.112150617748295
114 1 23.5610294633957 33.27414536843884 18.112150617748295
115 1 25.214435039774344 34.752996273702784 16.300935555973464
116 1 31.001354557099596 32.16500718949087 17.20654308686088
117 1 28.521246192531635 31.05586901054291 16.300935555973464
118 2 26.041137827963666 36.60155990528272 20.82897321041054
119 1 25.214435039774344 39.18954898949463 19.923365679523123
120 1 31.001354557099596 34.383283547386796 19.017758148635707
121 2 31.001354557099603 36.60155990528272 20.82897321041054
122 1 28.521246192531635 35.492421726334754 19.923365679523126
123 1 27.69454340434231 35.86213445265074 17.20654308686088
124 1 27.694543404342312 38.080410810546674 19.01775814863571
125 1 30.17465176891028 36.97127263159871 18.112150617748295
126 1 25.214435039774344 36.97127263159871 18.112150617748295
127 1 26.86784061615299 38.450123536862655 16.300935555973464
128 1 32.65476013347825 35.86213445265074 17.20654308686088
129 1 30.17465176891028 34.752996273702784 16.300935555973464
130 2 27.694543404342312 40.29868716844259 20.82897321041054
131 1 26.86784061615299 42.8866762526545 19.923365679523123
132 1 32.65476013347825 38.08041081054667 19.017758148635707
133 2 32.65476013347825 40.29868716844259 20.82897321041054
134 1 30.17465176891028 39.18954898949463 19.923365679523126
135 1 29.347948980720957 39.55926171581062 17.20654308686088
136 1 29.347948980720957 41.777538073706545 19.01775814863571
137 1 31.828057345288926 40.66839989475858 18.112150617748295
138 1 26.86784061615299 40.66839989475858 18.112150617748295
139 1 34.308165709856894 39.55926171581062 17.20654308686088
140 1 31.828057345288926 38.450123536862655 16.300935555973464
141 2 29.347948980720957 43.99581443160247 20.82897321041054
142 1 34.308165709856894 41.77753807370654 19.017758148635707
143 2 34.308165709856894 43.99581443160247 20.82897321041054
144 1 31.828057345288926 42.8866762526545 19.923365679523126
