LAMMPS (29 Aug 2024 - Update 2)
#---------------------------------------------------------------------------------------------------
# Initilise important features of simulation
#---------------------------------------------------------------------------------------------------
units 		metal	# Use metals units (Ang, ps, eV, bar, etc.)
dimension 	3		# Run the simulation in three dimensions
boundary 	p p p	# Use periodic boundaries in all three dimensions
atom_style 	atomic	#
#box tilt large		# Allow larger than normal tilt factors

variable T_start equal 600
variable T_end equal 200
variable tstep equal 0.002
timestep ${tstep}
timestep 0.002

read_data   lammps.txt	# Read in atom coordinates from a file
Reading data file ...
  triclinic box = (0 0 0) to (9.9204335 11.091382 23.734581) with tilt (4.9602167 1.8600813 30.778584)
WARNING: Triclinic box skew is large. LAMMPS will run inefficiently. (src/domain.cpp:221)
  1 by 1 by 1 MPI processor grid
  reading atoms ...
  144 atoms
  read_data CPU = 0.001 seconds

#---------------------------------------------------------------------------------------------------
# Define how the forces between the atoms will be modelled
#---------------------------------------------------------------------------------------------------
pair_style eam/alloy
pair_coeff * * Zope-Ti-Al-2003.eam.alloy.txt Al Al

#---------------------------------------------------------------------------------------------------
# Set behaviour of simulation
#---------------------------------------------------------------------------------------------------
group g_fixed type 2
36 atoms in group g_fixed
group g_other type 1
108 atoms in group g_other
fix f_freeze g_fixed setforce 0.0 0.0 0.0 	# Hold atoms of type 2 fixed in place
#fix f_constrain g_other setforce 0.0 0.0 NULL 	# All atoms of type 1 to move only in z direction

#---------------------------------------------------------------------------------------------------
# Specify what information to write out
#---------------------------------------------------------------------------------------------------
thermo_style custom step atoms temp pe ke etotal fmax
thermo_modify format 6 %20.10f
thermo 1000

#compute statom all stress/atom NULL
compute peatom all pe/atom
dump 1 all custom 100000 dump.* id type x y z c_peatom
dump_modify 1 first yes


#---------------------------------------------------------------------------------------------------
# Initial relaxation
#---------------------------------------------------------------------------------------------------
velocity all set 0.0 0.0 0.0

min_style 	cg
min_modify dmax 0.1
minimize 	0.0 1.0e-6 10000 100000
Neighbor list info ...
  update: every = 1 steps, delay = 0 steps, check = yes
  max neighbors/atom: 2000, page size: 100000
  master list distance cutoff = 8.724884
  ghost atom cutoff = 8.724884
  binsize = 4.362442, bins = 4 10 6
  1 neighbor lists, perpetual/occasional/extra = 1 0 0
  (1) pair eam/alloy, perpetual
      attributes: half, newton on
      pair build: half/bin/atomonly/newton/tri
      stencil: half/bin/3d/tri
      bin: standard
Per MPI rank memory allocation (min/avg/max) = 4.661 | 4.661 | 4.661 Mbytes
   Step        Atoms         Temp          PotEng         KinEng         TotEng          Fmax     
         0         144   0             -454.40556      0                  -454.4055649857  6.0593303    
        98         144   0             -474.11372      0                  -474.1137169827  1.0784659e-07
Loop time of 0.0164904 on 1 procs for 98 steps with 144 atoms

98.9% CPU use with 1 MPI tasks x no OpenMP threads

Minimization stats:
  Stopping criterion = force tolerance
  Energy initial, next-to-last, final = 
     -454.405564985704  -474.113716982653  -474.113716982663
  Force two-norm initial, final = 19.439734 7.1798396e-07
  Force max component initial, final = 6.0593303 1.0784659e-07
  Final line search alpha, max atom move = 1 1.0784659e-07
  Iterations, force evaluations = 98 170

MPI task timing breakdown:
Section |  min time  |  avg time  |  max time  |%varavg| %total
---------------------------------------------------------------
Pair    | 0.01364    | 0.01364    | 0.01364    |   0.0 | 82.71
Neigh   | 0.0013818  | 0.0013818  | 0.0013818  |   0.0 |  8.38
Comm    | 0.00079625 | 0.00079625 | 0.00079625 |   0.0 |  4.83
Output  | 0          | 0          | 0          |   0.0 |  0.00
Modify  | 2.6583e-05 | 2.6583e-05 | 2.6583e-05 |   0.0 |  0.16
Other   |            | 0.0006463  |            |       |  3.92

Nlocal:            144 ave         144 max         144 min
Histogram: 1 0 0 0 0 0 0 0 0 0
Nghost:           2456 ave        2456 max        2456 min
Histogram: 1 0 0 0 0 0 0 0 0 0
Neighs:          11140 ave       11140 max       11140 min
Histogram: 1 0 0 0 0 0 0 0 0 0

Total # of neighbors = 11140
Ave neighs/atom = 77.361111
Neighbor list builds = 3
Dangerous builds = 0
#---------------------------------------------------------------------------------------------------
# Anneal boundary structures
#---------------------------------------------------------------------------------------------------
reset_timestep 100000
fix md g_other nvt temp ${T_start} ${T_end} $(100.0*v_tstep)
fix md g_other nvt temp 600 ${T_end} $(100.0*v_tstep)
fix md g_other nvt temp 600 200 $(100.0*v_tstep)
fix md g_other nvt temp 600 200 0.2000000000000000111

velocity all create ${T_start} 4928459 rot yes mom yes dist gaussian
velocity all create 600 4928459 rot yes mom yes dist gaussian
run 10000
Per MPI rank memory allocation (min/avg/max) = 4.918 | 4.918 | 4.918 Mbytes
   Step        Atoms         Temp          PotEng         KinEng         TotEng          Fmax     
    100000         144   600           -474.11372      11.09052           -463.0231965417  1.0784659e-07
    101000         144   592.82884     -466.88958      10.957967          -455.9316114306  1.4653535    
    102000         144   620.87041     -466.71423      11.476293          -455.2379318613  1.2355087    
    103000         144   560.2546      -468.00915      10.355858          -457.6532883534  1.3641755    
    104000         144   519.0827      -467.94488      9.5948288          -458.3500524872  1.2027622    
    105000         144   460.83034     -468.38654      8.5180805          -459.8684558390  1.0949588    
    106000         144   445.72101     -469.40339      8.2387966          -461.1645893386  0.95409157   
    107000         144   429.5835      -470.2659       7.9405077          -462.3253877252  1.0324548    
    108000         144   392.35614     -470.82456      7.2523896          -463.5721657682  0.94609896   
    109000         144   339.06125     -471.01138      6.2672763          -464.7441053574  1.1032802    
    110000         144   314.5638      -471.82762      5.8144604          -466.0131559132  0.76613339   
Loop time of 0.882556 on 1 procs for 10000 steps with 144 atoms

Performance: 1957.950 ns/day, 0.012 hours/ns, 11330.731 timesteps/s, 1.632 Matom-step/s
99.9% CPU use with 1 MPI tasks x no OpenMP threads

MPI task timing breakdown:
Section |  min time  |  avg time  |  max time  |%varavg| %total
---------------------------------------------------------------
Pair    | 0.76339    | 0.76339    | 0.76339    |   0.0 | 86.50
Neigh   | 0.05186    | 0.05186    | 0.05186    |   0.0 |  5.88
Comm    | 0.045495   | 0.045495   | 0.045495   |   0.0 |  5.15
Output  | 7.0503e-05 | 7.0503e-05 | 7.0503e-05 |   0.0 |  0.01
Modify  | 0.010862   | 0.010862   | 0.010862   |   0.0 |  1.23
Other   |            | 0.01088    |            |       |  1.23

Nlocal:            144 ave         144 max         144 min
Histogram: 1 0 0 0 0 0 0 0 0 0
Nghost:           2485 ave        2485 max        2485 min
Histogram: 1 0 0 0 0 0 0 0 0 0
Neighs:          10976 ave       10976 max       10976 min
Histogram: 1 0 0 0 0 0 0 0 0 0

Total # of neighbors = 10976
Ave neighs/atom = 76.222222
Neighbor list builds = 103
Dangerous builds = 0
unfix md

#---------------------------------------------------------------------------------------------------
# Final relaxation
#---------------------------------------------------------------------------------------------------
velocity all set 0.0 0.0 0.0

min_style 	cg
min_modify dmax 0.1
minimize 	0.0 1.0e-6 10000 100000
Per MPI rank memory allocation (min/avg/max) = 6.043 | 6.043 | 6.043 Mbytes
   Step        Atoms         Temp          PotEng         KinEng         TotEng          Fmax     
    110000         144   0             -471.82762      0                  -471.8276163368  0.76613339   
    110084         144   0             -474.64539      0                  -474.6453856304  2.2783195e-07
Loop time of 0.0157804 on 1 procs for 84 steps with 144 atoms

97.8% CPU use with 1 MPI tasks x no OpenMP threads

Minimization stats:
  Stopping criterion = force tolerance
  Energy initial, next-to-last, final = 
     -471.827616336812  -474.645385630423  -474.645385630424
  Force two-norm initial, final = 4.5088296 9.1440492e-07
  Force max component initial, final = 0.76613339 2.2783195e-07
  Final line search alpha, max atom move = 1 2.2783195e-07
  Iterations, force evaluations = 84 165

MPI task timing breakdown:
Section |  min time  |  avg time  |  max time  |%varavg| %total
---------------------------------------------------------------
Pair    | 0.013746   | 0.013746   | 0.013746   |   0.0 | 87.11
Neigh   | 0.00048029 | 0.00048029 | 0.00048029 |   0.0 |  3.04
Comm    | 0.00076142 | 0.00076142 | 0.00076142 |   0.0 |  4.83
Output  | 0          | 0          | 0          |   0.0 |  0.00
Modify  | 2.7127e-05 | 2.7127e-05 | 2.7127e-05 |   0.0 |  0.17
Other   |            | 0.0007656  |            |       |  4.85

Nlocal:            144 ave         144 max         144 min
Histogram: 1 0 0 0 0 0 0 0 0 0
Nghost:           2503 ave        2503 max        2503 min
Histogram: 1 0 0 0 0 0 0 0 0 0
Neighs:          11017 ave       11017 max       11017 min
Histogram: 1 0 0 0 0 0 0 0 0 0

Total # of neighbors = 11017
Ave neighs/atom = 76.506944
Neighbor list builds = 1
Dangerous builds = 0

Total wall time: 0:00:00
