#Lammps coordinate file for CSL - Axis: [1 1 1]  Angle: (1, 3) -> 59.99999999999999  Plane indices: [0 1 1]  z-position: [4.9336451853244885 14.800935555973464]  Repeats: 1 1 (3, 3) (black, white)  Fixed: 2.228  Boundary equiv: True
144 atoms

2 atom types

0.0 9.920433458271871 xlo xhi
0.0 11.091381789479609 ylo yhi
0.0 19.734580741297954 zlo zhi
4.9602167291359365 15.500677278549809 47.41565715002534 xy xz yz

Atoms

1 1 10.230447003842869 18.162137680272863 5.339252716211904
2 1 15.190663732978802 18.16213768027286 5.339252716211904
3 1 12.710555368410837 19.27127585922082 6.24486024709932
4 1 15.190663732978804 20.380414038168784 7.150467777986734
5 1 18.497474885736096 21.85926494343273 5.339252716211904
6 1 10.230447003842869 20.380414038168784 7.150467777986734
7 1 7.7503386392749025 21.489552217116746 8.05607530887415
8 2 10.230447003842869 22.598690396064704 8.961682839761563
9 1 7.7503386392749025 19.27127585922082 6.244860247099318
10 2 15.190663732978804 22.598690396064704 8.961682839761563
11 2 12.710555368410837 23.707828575012666 9.867290370648979
12 2 15.190663732978805 24.816966753960628 10.772897901536393
13 1 12.710555368410837 21.489552217116746 8.05607530887415
14 1 13.537258156600158 21.85926494343273 5.339252716211904
15 1 11.057149792032192 22.968403122380693 6.244860247099318
16 1 13.53725815660016 24.077541301328655 7.150467777986734
17 1 18.497474885736096 24.07754130132865 7.150467777986734
18 1 16.017366521168128 25.186679480276617 8.05607530887415
19 2 18.497474885736096 26.295817659224575 8.961682839761563
20 1 16.017366521168128 22.968403122380693 6.24486024709932
21 1 16.84406930935745 25.5563922065926 5.339252716211902
22 1 19.32417767392542 26.665530385540563 6.244860247099318
23 2 10.23044700384287 24.816966753960628 10.772897901536393
24 1 7.750338639274903 25.92610493290859 11.678505432423808
25 1 10.23044700384287 27.035243111856552 12.584112963311222
26 2 7.750338639274903 23.70782857501267 9.867290370648979
27 1 15.190663732978805 27.035243111856552 12.584112963311222
28 1 12.710555368410839 28.14438129080451 13.489720494198638
29 1 15.190663732978805 29.253519469752472 14.395328025086053
30 1 12.710555368410839 25.92610493290859 11.678505432423808
31 2 13.53725815660016 26.295817659224575 8.961682839761563
32 2 11.057149792032194 27.404955838172537 9.867290370648979
33 2 13.53725815660016 28.5140940171205 10.772897901536393
34 1 11.057149792032194 25.186679480276617 8.05607530887415
35 1 11.883852580221514 25.5563922065926 5.339252716211902
36 1 11.883852580221514 27.774668564488525 7.150467777986734
37 2 18.497474885736096 28.5140940171205 10.772897901536393
38 1 16.017366521168128 29.62323219606846 11.678505432423808
39 1 18.497474885736096 30.732370375016423 12.584112963311224
40 2 16.017366521168128 27.404955838172537 9.867290370648979
41 1 16.84406930935745 27.774668564488522 7.150467777986734
42 1 14.363960944789483 28.883806743436487 8.05607530887415
43 2 16.84406930935745 29.992944922384446 8.961682839761563
44 1 14.363960944789483 26.665530385540563 6.244860247099318
45 2 19.32417767392542 31.102083101332408 9.867290370648977
46 1 19.32417767392542 28.883806743436484 8.05607530887415
47 1 10.230447003842873 29.253519469752476 14.395328025086052
48 1 7.750338639274904 28.144381290804514 13.489720494198638
49 1 13.53725815660016 30.732370375016423 12.584112963311222
50 1 11.057149792032195 31.84150855396438 13.489720494198638
51 1 13.537258156600162 32.95064673291235 14.395328025086053
52 1 11.057149792032195 29.62323219606846 11.678505432423808
53 2 11.883852580221514 29.992944922384446 8.961682839761563
54 2 11.883852580221516 32.21122128028037 10.772897901536393
55 1 18.497474885736096 32.95064673291235 14.395328025086052
56 1 16.017366521168128 31.84150855396438 13.48972049419864
57 2 16.84406930935745 32.21122128028037 10.772897901536393
58 1 14.363960944789484 33.32035945922833 11.678505432423808
59 1 16.84406930935745 34.429497638176294 12.584112963311224
60 2 14.363960944789483 31.102083101332408 9.867290370648979
61 1 19.32417767392542 35.53863581712425 13.489720494198636
62 1 19.324177673925416 33.32035945922833 11.678505432423808
63 1 11.883852580221516 34.429497638176294 12.58411296331122
64 1 11.883852580221516 36.64777399607222 14.395328025086052
65 1 16.84406930935745 36.64777399607222 14.39532802508605
66 1 14.363960944789484 35.53863581712425 13.489720494198638
67 1 0.0 2.218276357895922 1.8112150617748295
68 2 2.4801083645679682 1.109138178947962 0.9056075308874145
69 2 4.960216729135936 0.0 -2.220446049250313e-16
70 2 0.0 0.0 0.0
71 1 0.0 6.654829073687768 4.9336451853244885
72 1 2.4801083645679682 3.327414536843884 2.7168225926622442
73 1 2.4801083645679682 5.545690894739806 4.528037654437073
74 1 4.960216729135936 4.436552715791845 3.6224301235496585
75 1 0.0 4.436552715791845 3.6224301235496585
76 1 1.6534055763786455 5.915403621055794 1.811215061774829
77 2 7.440325093703903 1.109138178947962 0.9056075308874143
78 1 7.440325093703903 3.327414536843884 2.7168225926622442
79 1 4.960216729135936 2.218276357895922 1.811215061774829
80 2 4.133513940946613 4.806265442107832 0.9056075308874143
81 2 6.61362230551458 3.697127263159871 -6.661338147750939e-16
82 2 1.6534055763786455 3.697127263159871 -4.440892098500626e-16
83 1 1.6534055763786455 10.351956336847639 4.9336451853244885
84 1 7.440325093703903 5.545690894739806 4.528037654437073
85 1 4.960216729135936 6.654829073687768 4.9336451853244885
86 1 4.133513940946613 7.024541800003755 2.716822592662244
87 1 4.133513940946613 9.242818157899677 4.528037654437073
88 1 6.61362230551458 8.133679978951715 3.6224301235496585
89 1 1.6534055763786455 8.133679978951717 3.6224301235496585
90 1 3.306811152757291 9.612530884215664 1.811215061774829
91 2 9.093730670082548 4.806265442107832 0.9056075308874141
92 1 9.093730670082547 7.024541800003755 2.716822592662244
93 1 6.61362230551458 5.915403621055793 1.811215061774829
94 2 5.7869195173252574 8.503392705267704 0.9056075308874139
95 2 8.267027881893226 7.394254526319742 -9.992007221626409e-16
96 2 3.306811152757291 7.394254526319742 -8.881784197001252e-16
97 1 3.306811152757291 14.04908360000751 4.933645185324487
98 1 9.093730670082547 9.242818157899677 4.528037654437073
99 1 6.613622305514581 10.351956336847639 4.9336451853244885
100 1 5.786919517325258 10.721669063163626 2.7168225926622434
101 1 5.786919517325258 12.939945421059548 4.528037654437073
102 1 8.267027881893226 11.830807242111586 3.6224301235496585
103 1 3.306811152757291 11.830807242111588 3.6224301235496585
104 2 10.747136246461192 8.503392705267704 0.9056075308874136
105 1 10.747136246461192 10.721669063163626 2.7168225926622434
106 1 8.267027881893226 9.612530884215664 1.8112150617748286
107 1 15.500677278549803 40.760828076337575 14.800935555973467
108 1 10.747136246461192 12.939945421059548 4.528037654437073
109 1 8.267027881893226 14.04908360000751 4.933645185324487
110 1 15.500677278549803 45.197380792129415 17.923365679523123
111 1 17.98078564311777 41.86996625528553 15.20654308686088
112 1 17.98078564311777 44.08824261318146 17.01775814863571
113 1 20.460894007685738 42.9791044342335 16.112150617748295
114 1 15.500677278549803 42.9791044342335 16.112150617748295
115 1 17.154082854928447 44.45795533949744 14.800935555973464
116 1 22.941002372253706 41.86996625528553 15.20654308686088
117 1 20.460894007685738 40.760828076337575 14.800935555973464
118 2 17.98078564311777 46.306518971077374 18.82897321041054
119 1 17.154082854928447 48.894508055289286 17.923365679523123
120 1 22.941002372253706 44.08824261318146 17.017758148635707
121 2 22.941002372253706 46.306518971077374 18.82897321041054
122 1 20.460894007685738 45.197380792129415 17.923365679523126
123 1 19.634191219496415 45.567093518445404 15.20654308686088
124 1 19.634191219496415 47.78536987634133 17.01775814863571
125 1 22.114299584064383 46.67623169739337 16.112150617748295
126 1 17.154082854928447 46.67623169739337 16.112150617748295
127 1 18.807488431307092 48.15508260265731 14.800935555973464
128 1 24.59440794863235 45.567093518445404 15.20654308686088
129 1 22.114299584064383 44.45795533949744 14.800935555973464
130 2 19.634191219496415 50.003646234237245 18.82897321041054
131 1 18.807488431307092 52.59163531844916 17.923365679523123
132 1 24.59440794863235 47.78536987634133 17.017758148635707
133 2 24.59440794863235 50.003646234237245 18.82897321041054
134 1 22.114299584064383 48.894508055289286 17.923365679523126
135 1 21.28759679587506 49.264220781605275 15.20654308686088
136 1 21.28759679587506 51.4824971395012 17.01775814863571
137 1 23.76770516044303 50.37335896055324 16.112150617748295
138 1 18.807488431307092 50.37335896055324 16.112150617748295
139 1 26.247813525010997 49.264220781605275 15.20654308686088
140 1 23.76770516044303 48.15508260265731 14.800935555973464
141 2 21.28759679587506 53.70077349739712 18.82897321041054
142 1 26.247813525010997 51.4824971395012 17.017758148635707
143 2 26.247813525010997 53.70077349739712 18.82897321041054
144 1 23.76770516044303 52.59163531844916 17.923365679523126
