#Lammps coordinate file for CSL - Axis: [1 1 1]  Angle: (1, 3) -> 59.99999999999999  Plane indices: [0 1 1]  z-position: [4.9336451853244885 14.800935555973464]  Repeats: 1 1 (3, 3) (black, white)  Fixed: 2.228  Boundary equiv: True
144 atoms

2 atom types

0.0 9.920433458271871 xlo xhi
0.0 11.091381789479609 ylo yhi
0.0 19.734580741297954 zlo zhi
4.9602167291359365 8.060352184845902 33.551429913175824 xy xz yz

Atoms

1 1 6.5102844569909175 11.230024061848106 5.339252716211904
2 1 11.47050118612685 11.230024061848106 5.339252716211904
3 1 8.990392821558885 12.339162240796066 6.24486024709932
4 1 11.470501186126851 13.448300419744028 7.150467777986734
5 1 14.777312338884142 14.927151325007975 5.339252716211904
6 1 6.510284456990917 13.448300419744028 7.150467777986734
7 1 4.03017609242295 14.55743859869199 8.05607530887415
8 2 6.5102844569909175 15.66657677763995 8.961682839761563
9 1 4.03017609242295 12.339162240796067 6.244860247099319
10 2 11.470501186126851 15.66657677763995 8.961682839761563
11 2 8.990392821558885 16.775714956587912 9.867290370648979
12 2 11.470501186126853 17.884853135535874 10.772897901536393
13 1 8.990392821558885 14.55743859869199 8.05607530887415
14 1 9.817095609748206 14.927151325007975 5.339252716211904
15 1 7.33698724518024 16.03628950395594 6.244860247099319
16 1 9.817095609748208 17.1454276829039 7.150467777986734
17 1 14.777312338884142 17.145427682903897 7.150467777986734
18 1 12.297203974316176 18.25456586185186 8.05607530887415
19 2 14.777312338884144 19.36370404079982 8.961682839761563
20 1 12.297203974316174 16.03628950395594 6.24486024709932
21 1 13.123906762505499 18.624278588167847 5.339252716211903
22 1 15.604015127073467 19.73341676711581 6.244860247099318
23 2 6.510284456990918 17.884853135535874 10.772897901536393
24 1 4.030176092422951 18.993991314483836 11.678505432423808
25 1 6.510284456990918 20.103129493431798 12.584112963311222
26 2 4.030176092422951 16.775714956587912 9.867290370648979
27 1 11.470501186126853 20.103129493431798 12.584112963311222
28 1 8.990392821558887 21.212267672379756 13.489720494198638
29 1 11.470501186126853 22.321405851327718 14.395328025086053
30 1 8.990392821558887 18.993991314483836 11.678505432423808
31 2 9.817095609748208 19.36370404079982 8.961682839761563
32 2 7.336987245180241 20.472842219747783 9.867290370648979
33 2 9.817095609748208 21.581980398695745 10.772897901536393
34 1 7.336987245180241 18.254565861851862 8.05607530887415
35 1 8.163690033369562 18.624278588167847 5.339252716211903
36 1 8.163690033369562 20.84255494606377 7.150467777986734
37 2 14.777312338884144 21.581980398695745 10.772897901536393
38 1 12.297203974316176 22.691118577643707 11.678505432423808
39 1 14.777312338884144 23.80025675659167 12.584112963311224
40 2 12.297203974316176 20.472842219747783 9.867290370648979
41 1 13.123906762505499 20.842554946063768 7.150467777986734
42 1 10.64379839793753 21.951693125011733 8.05607530887415
43 2 13.123906762505499 23.06083130395969 8.961682839761563
44 1 10.64379839793753 19.73341676711581 6.244860247099319
45 2 15.604015127073467 24.169969482907653 9.867290370648977
46 1 15.604015127073467 21.95169312501173 8.05607530887415
47 1 6.510284456990919 22.32140585132772 14.395328025086052
48 1 4.030176092422952 21.21226767237976 13.489720494198638
49 1 9.817095609748208 23.80025675659167 12.584112963311222
50 1 7.336987245180243 24.909394935539627 13.489720494198638
51 1 9.81709560974821 26.01853311448759 14.395328025086053
52 1 7.336987245180242 22.691118577643707 11.678505432423808
53 2 8.163690033369562 23.06083130395969 8.961682839761563
54 2 8.163690033369564 25.279107661855615 10.772897901536393
55 1 14.777312338884144 26.01853311448759 14.395328025086052
56 1 12.297203974316176 24.909394935539627 13.48972049419864
57 2 13.123906762505499 25.279107661855615 10.772897901536393
58 1 10.643798397937532 26.388245840803577 11.678505432423808
59 1 13.1239067625055 27.49738401975154 12.584112963311224
60 2 10.64379839793753 24.169969482907653 9.867290370648979
61 1 15.604015127073465 28.606522198699498 13.489720494198636
62 1 15.604015127073463 26.388245840803574 11.678505432423808
63 1 8.163690033369564 27.49738401975154 12.58411296331122
64 1 8.163690033369564 29.71566037764746 14.395328025086052
65 1 13.1239067625055 29.71566037764746 14.39532802508605
66 1 10.643798397937532 28.606522198699498 13.489720494198638
67 1 0.0 2.2182763578959226 1.8112150617748293
68 2 2.480108364567968 1.109138178947961 0.9056075308874145
69 2 4.960216729135936 -4.440892098500626e-16 -2.220446049250313e-16
70 2 0.0 0.0 0.0
71 1 0.0 6.654829073687768 4.9336451853244885
72 1 2.480108364567968 3.327414536843884 2.7168225926622442
73 1 2.4801083645679682 5.545690894739806 4.528037654437074
74 1 4.960216729135936 4.436552715791845 3.622430123549659
75 1 0.0 4.436552715791845 3.622430123549659
76 1 1.6534055763786455 5.915403621055794 1.8112150617748293
77 2 7.440325093703903 1.109138178947961 0.9056075308874145
78 1 7.440325093703903 3.3274145368438837 2.7168225926622442
79 1 4.960216729135936 2.218276357895922 1.8112150617748293
80 2 4.133513940946613 4.806265442107832 0.9056075308874143
81 2 6.61362230551458 3.6971272631598704 -6.661338147750939e-16
82 2 1.6534055763786455 3.697127263159871 -4.440892098500626e-16
83 1 1.6534055763786455 10.351956336847639 4.9336451853244885
84 1 7.440325093703903 5.545690894739806 4.528037654437074
85 1 4.960216729135936 6.654829073687768 4.9336451853244885
86 1 4.133513940946613 7.024541800003755 2.7168225926622434
87 1 4.133513940946613 9.242818157899677 4.528037654437074
88 1 6.61362230551458 8.133679978951715 3.622430123549659
89 1 1.6534055763786455 8.133679978951717 3.622430123549659
90 1 3.3068111527572905 9.612530884215664 1.8112150617748288
91 2 9.093730670082548 4.806265442107832 0.9056075308874141
92 1 9.093730670082547 7.024541800003755 2.7168225926622434
93 1 6.61362230551458 5.915403621055793 1.8112150617748288
94 2 5.7869195173252574 8.503392705267704 0.9056075308874139
95 2 8.267027881893226 7.394254526319742 -9.992007221626409e-16
96 2 3.3068111527572905 7.394254526319742 -8.881784197001252e-16
97 1 3.306811152757291 14.04908360000751 4.933645185324488
98 1 9.093730670082547 9.242818157899677 4.528037654437074
99 1 6.613622305514581 10.351956336847639 4.9336451853244885
100 1 5.786919517325258 10.721669063163626 2.7168225926622434
101 1 5.786919517325258 12.939945421059548 4.528037654437073
102 1 8.267027881893226 11.830807242111586 3.622430123549658
103 1 3.306811152757291 11.830807242111588 3.622430123549658
104 2 10.747136246461192 8.503392705267704 0.9056075308874136
105 1 10.747136246461192 10.721669063163626 2.7168225926622434
106 1 8.267027881893226 9.612530884215664 1.8112150617748284
107 1 8.060352184845899 26.896600839488062 14.800935555973467
108 1 10.747136246461192 12.939945421059548 4.528037654437073
109 1 8.267027881893226 14.04908360000751 4.933645185324488
110 1 8.060352184845899 31.333153555279907 17.923365679523123
111 1 10.540460549413865 28.005739018436024 15.20654308686088
112 1 10.540460549413867 30.22401537633195 17.01775814863571
113 1 13.020568913981833 29.114877197383986 16.112150617748295
114 1 8.060352184845899 29.114877197383986 16.112150617748295
115 1 9.713757761224542 30.593728102647933 14.800935555973464
116 1 15.500677278549801 28.005739018436024 15.20654308686088
117 1 13.020568913981833 26.896600839488062 14.800935555973464
118 2 10.540460549413867 32.442291734227865 18.82897321041054
119 1 9.713757761224544 35.03028081843978 17.923365679523123
120 1 15.500677278549801 30.224015376331945 17.017758148635707
121 2 15.500677278549801 32.442291734227865 18.82897321041054
122 1 13.020568913981833 31.333153555279907 17.923365679523126
123 1 12.19386612579251 31.702866281595895 15.20654308686088
124 1 12.193866125792512 33.92114263949182 17.01775814863571
125 1 14.673974490360479 32.812004460543854 16.112150617748295
126 1 9.713757761224544 32.812004460543854 16.112150617748295
127 1 11.367163337603188 34.2908553658078 14.800935555973464
128 1 17.154082854928447 31.702866281595895 15.20654308686088
129 1 14.673974490360479 30.593728102647933 14.800935555973464
130 2 12.193866125792512 36.139418997387736 18.82897321041054
131 1 11.36716333760319 38.72740808159964 17.923365679523123
132 1 17.154082854928447 33.92114263949181 17.017758148635707
133 2 17.154082854928447 36.139418997387736 18.82897321041054
134 1 14.673974490360479 35.03028081843978 17.923365679523126
135 1 13.847271702171156 35.399993544755766 15.20654308686088
136 1 13.847271702171158 37.61826990265168 17.01775814863571
137 1 16.327380066739124 36.509131723703725 16.112150617748295
138 1 11.36716333760319 36.509131723703725 16.112150617748295
139 1 18.807488431307092 35.399993544755766 15.20654308686088
140 1 16.327380066739124 34.2908553658078 14.800935555973464
141 2 13.847271702171158 39.83654626054761 18.82897321041054
142 1 18.807488431307092 37.61826990265168 17.017758148635707
143 2 18.807488431307092 39.83654626054761 18.82897321041054
144 1 16.327380066739124 38.72740808159964 17.923365679523126
