#Lammps coordinate file for CSL - Axis: [1 1 1]  Angle: (1, 3) -> 59.99999999999999  Plane indices: [0 1 1]  z-position: [5.1836451853244885 15.550935555973464]  Repeats: 1 1 (3, 3) (black, white)  Fixed: 2.228  Boundary equiv: True
144 atoms

2 atom types

0.0 9.920433458271871 xlo xhi
0.0 11.091381789479609 ylo yhi
0.0 20.734580741297954 zlo zhi
4.9602167291359365 11.16048764055586 32.16500718949087 xy xz yz

Atoms

1 1 8.060352184845897 10.53681270000563 5.839252716211904
2 1 13.02056891398183 10.53681270000563 5.839252716211904
3 1 10.540460549413865 11.64595087895359 6.74486024709932
4 1 13.02056891398183 12.755089057901552 7.650467777986734
5 1 16.32738006673912 14.233939963165499 5.839252716211904
6 1 8.060352184845897 12.755089057901552 7.650467777986734
7 1 5.580243820277929 13.864227236849514 8.55607530887415
8 2 8.060352184845897 14.973365415797474 9.461682839761563
9 1 5.580243820277929 11.645950878953592 6.744860247099319
10 2 13.02056891398183 14.973365415797474 9.461682839761563
11 2 10.540460549413865 16.082503594745436 10.367290370648979
12 2 13.020568913981831 17.191641773693398 11.272897901536393
13 1 10.540460549413865 13.864227236849514 8.55607530887415
14 1 11.367163337603184 14.233939963165499 5.839252716211904
15 1 8.88705497303522 15.34307814211346 6.744860247099319
16 1 11.367163337603186 16.452216321061425 7.650467777986734
17 1 16.32738006673912 16.45221632106142 7.650467777986734
18 1 13.847271702171156 17.561354500009383 8.55607530887415
19 2 16.327380066739124 18.670492678957345 9.461682839761563
20 1 13.847271702171152 15.34307814211346 6.74486024709932
21 1 14.673974490360479 17.93106722632537 5.839252716211903
22 1 17.154082854928447 19.040205405273333 6.744860247099318
23 2 8.060352184845897 17.191641773693398 11.272897901536393
24 1 5.58024382027793 18.30077995264136 12.178505432423808
25 1 8.060352184845897 19.409918131589322 13.084112963311222
26 2 5.58024382027793 16.082503594745436 10.367290370648979
27 1 13.020568913981833 19.409918131589322 13.084112963311222
28 1 10.540460549413865 20.51905631053728 13.989720494198638
29 1 13.020568913981833 21.628194489485242 14.895328025086053
30 1 10.540460549413865 18.30077995264136 12.178505432423808
31 2 11.367163337603188 18.670492678957345 9.461682839761563
32 2 8.88705497303522 19.779630857905307 10.367290370648979
33 2 11.367163337603188 20.88876903685327 11.272897901536393
34 1 8.88705497303522 17.561354500009386 8.55607530887415
35 1 9.713757761224542 17.93106722632537 5.839252716211903
36 1 9.713757761224542 20.149343584221295 7.650467777986734
37 2 16.327380066739124 20.88876903685327 11.272897901536393
38 1 13.847271702171156 21.99790721580123 12.178505432423808
39 1 16.327380066739124 23.107045394749193 13.084112963311224
40 2 13.847271702171156 19.779630857905307 10.367290370648979
41 1 14.673974490360479 20.149343584221292 7.650467777986734
42 1 12.19386612579251 21.258481763169257 8.55607530887415
43 2 14.673974490360479 22.367619942117216 9.461682839761563
44 1 12.19386612579251 19.040205405273333 6.744860247099319
45 2 17.154082854928447 23.476758121065178 10.367290370648977
46 1 17.154082854928447 21.258481763169254 8.55607530887415
47 1 8.060352184845899 21.628194489485246 14.895328025086052
48 1 5.580243820277931 20.519056310537284 13.989720494198638
49 1 11.367163337603188 23.107045394749193 13.084112963311222
50 1 8.887054973035223 24.21618357369715 13.989720494198638
51 1 11.367163337603188 25.325321752645113 14.895328025086053
52 1 8.887054973035221 21.99790721580123 12.178505432423808
53 2 9.713757761224542 22.367619942117216 9.461682839761563
54 2 9.713757761224542 24.58589630001314 11.272897901536393
55 1 16.327380066739124 25.325321752645113 14.895328025086052
56 1 13.847271702171156 24.21618357369715 13.98972049419864
57 2 14.673974490360479 24.58589630001314 11.272897901536393
58 1 12.19386612579251 25.6950344789611 12.178505432423808
59 1 14.673974490360479 26.804172657909064 13.084112963311224
60 2 12.19386612579251 23.476758121065178 10.367290370648979
61 1 17.154082854928443 27.913310836857022 13.989720494198636
62 1 17.154082854928443 25.695034478961098 12.178505432423808
63 1 9.713757761224542 26.804172657909064 13.08411296331122
64 1 9.713757761224542 29.022449015804984 14.895328025086052
65 1 14.673974490360479 29.022449015804984 14.89532802508605
66 1 12.19386612579251 27.913310836857022 13.989720494198638
67 1 0.0 2.2182763578959226 1.8112150617748293
68 2 2.480108364567968 1.109138178947961 0.9056075308874145
69 2 4.960216729135936 -4.440892098500626e-16 -2.220446049250313e-16
70 2 0.0 0.0 0.0
71 1 8.881784197001252e-16 6.654829073687768 5.1836451853244885
72 1 2.480108364567968 3.327414536843884 2.7168225926622442
73 1 2.4801083645679682 5.545690894739806 4.528037654437074
74 1 4.960216729135936 4.436552715791845 3.622430123549659
75 1 8.881784197001252e-16 4.436552715791845 3.622430123549659
76 1 1.6534055763786455 5.915403621055794 1.8112150617748293
77 2 7.440325093703903 1.109138178947961 0.9056075308874145
78 1 7.440325093703903 3.3274145368438837 2.7168225926622442
79 1 4.960216729135936 2.218276357895922 1.8112150617748293
80 2 4.133513940946613 4.806265442107832 0.9056075308874143
81 2 6.61362230551458 3.6971272631598704 -6.106226635438361e-16
82 2 1.6534055763786455 3.697127263159871 -3.885780586188048e-16
83 1 1.6534055763786455 10.351956336847639 5.1836451853244885
84 1 7.440325093703903 5.545690894739806 4.528037654437074
85 1 4.960216729135936 6.654829073687768 5.1836451853244885
86 1 4.133513940946613 7.024541800003755 2.7168225926622434
87 1 4.133513940946613 9.242818157899677 4.528037654437074
88 1 6.61362230551458 8.133679978951715 3.622430123549659
89 1 1.6534055763786455 8.133679978951717 3.622430123549659
90 1 3.3068111527572905 9.612530884215664 1.8112150617748288
91 2 9.093730670082548 4.806265442107832 0.9056075308874141
92 1 9.093730670082547 7.024541800003755 2.7168225926622434
93 1 6.61362230551458 5.915403621055793 1.8112150617748288
94 2 5.7869195173252574 8.503392705267704 0.9056075308874139
95 2 8.267027881893226 7.394254526319742 -9.992007221626409e-16
96 2 3.3068111527572905 7.394254526319742 -7.771561172376096e-16
97 1 3.306811152757291 14.04908360000751 5.183645185324488
98 1 9.093730670082547 9.242818157899677 4.528037654437074
99 1 6.613622305514581 10.351956336847639 5.1836451853244885
100 1 5.786919517325258 10.721669063163626 2.7168225926622434
101 1 5.786919517325258 12.939945421059548 4.528037654437073
102 1 8.267027881893226 11.830807242111586 3.622430123549658
103 1 3.306811152757291 11.830807242111588 3.622430123549658
104 2 10.747136246461192 8.503392705267704 0.9056075308874136
105 1 10.747136246461192 10.721669063163626 2.7168225926622434
106 1 8.267027881893226 9.612530884215664 1.8112150617748284
107 1 11.160487640555857 25.51017811580311 15.550935555973467
108 1 10.747136246461192 12.939945421059548 4.528037654437073
109 1 8.267027881893226 14.04908360000751 5.183645185324488
110 1 11.160487640555857 29.946730831594955 18.923365679523123
111 1 13.640596005123825 26.619316294751073 16.20654308686088
112 1 13.640596005123825 28.837592652646997 18.01775814863571
113 1 16.120704369691794 27.728454473699035 17.112150617748295
114 1 11.160487640555857 27.728454473699035 17.112150617748295
115 1 12.813893216934503 29.20730537896298 15.550935555973464
116 1 18.60081273425976 26.619316294751073 16.20654308686088
117 1 16.120704369691794 25.51017811580311 15.550935555973464
118 2 13.640596005123825 31.055869010542917 19.82897321041054
119 1 12.813893216934503 33.643858094754826 18.923365679523123
120 1 18.60081273425976 28.837592652646993 18.017758148635707
121 2 18.600812734259762 31.055869010542917 19.82897321041054
122 1 16.120704369691794 29.946730831594955 18.923365679523126
123 1 15.29400158150247 30.316443557910944 16.20654308686088
124 1 15.29400158150247 32.53471991580687 18.01775814863571
125 1 17.77410994607044 31.425581736858906 17.112150617748295
126 1 12.813893216934503 31.425581736858906 17.112150617748295
127 1 14.467298793313148 32.90443264212285 15.550935555973464
128 1 20.254218310638407 30.316443557910944 16.20654308686088
129 1 17.77410994607044 29.20730537896298 15.550935555973464
130 2 15.29400158150247 34.752996273702784 19.82897321041054
131 1 14.467298793313148 37.3409853579147 18.923365679523123
132 1 20.254218310638407 32.53471991580686 18.017758148635707
133 2 20.254218310638407 34.752996273702784 19.82897321041054
134 1 17.77410994607044 33.643858094754826 18.923365679523126
135 1 16.947407157881116 34.013570821070815 16.20654308686088
136 1 16.947407157881116 36.23184717896674 18.01775814863571
137 1 19.427515522449085 35.12270900001877 17.112150617748295
138 1 14.467298793313148 35.12270900001877 17.112150617748295
139 1 21.907623887017053 34.013570821070815 16.20654308686088
140 1 19.427515522449085 32.90443264212285 15.550935555973464
141 2 16.947407157881116 38.45012353686266 19.82897321041054
142 1 21.907623887017053 36.23184717896673 18.017758148635707
143 2 21.907623887017053 38.45012353686266 19.82897321041054
144 1 19.427515522449085 37.3409853579147 18.923365679523126
