ITEM: TIMESTEP
0
ITEM: NUMBER OF ATOMS
144
ITEM: BOX BOUNDS xy xz yz pp pp pp
0.0000000000000000e+00 4.3401896379939444e+01 4.9602167291359365e+00
0.0000000000000000e+00 5.7120616215819993e+01 2.8521246192531635e+01
0.0000000000000000e+00 1.9734580741297954e+01 4.6029234426340381e+01
ITEM: ATOMS id type x y z c_peatom
70 2 0 0 0 -3.30588
82 2 1.65341 3.69713 0 -3.31207
69 2 4.96022 0 0 -3.30588
81 2 6.61362 3.69713 0 -3.31207
80 2 4.13351 4.80627 0.905608 -3.33001
91 2 9.09373 4.80627 0.905608 -3.33001
92 1 9.09373 7.02454 2.71682 -3.27773
93 1 6.61362 5.9154 1.81122 -3.3502
94 2 5.78692 8.50339 0.905608 -3.34871
95 2 8.26703 7.39425 0 -3.31207
76 1 11.5738 5.9154 1.81122 -3.3502
86 1 14.0539 7.02454 2.71682 -3.27773
96 2 13.2272 7.39425 0 -3.31207
104 2 10.7471 8.50339 0.905608 -3.34871
68 2 7.44033 12.2005 0.905608 -3.33412
102 1 8.26703 11.8308 3.62243 -3.35364
106 1 8.26703 9.61253 1.81122 -3.34965
77 2 12.4005 12.2005 0.905608 -3.33412
90 1 13.2272 9.61253 1.81122 -3.34965
103 1 13.2272 11.8308 3.62243 -3.35364
105 1 10.7471 10.7217 2.71682 -3.28686
108 1 10.7471 12.9399 4.52804 -3.42956
100 1 15.7074 10.7217 2.71682 -3.28686
101 1 15.7074 12.9399 4.52804 -3.42956
74 1 9.92043 15.5279 3.62243 -3.41673
78 1 12.4005 14.4188 2.71682 -3.31028
79 1 9.92043 13.3097 1.81122 -3.34532
84 1 12.4005 16.6371 4.52804 -1.29237
67 1 14.8807 13.3097 1.81122 -3.34532
72 1 17.3608 14.4188 2.71682 -3.31028
73 1 17.3608 16.6371 4.52804 -1.29237
75 1 14.8807 15.5279 3.62243 -3.41673
88 1 11.5738 19.2251 3.62243 -3.29721
98 1 14.0539 20.3342 4.52804 -2.00216
87 1 19.0142 20.3342 4.52804 -2.00216
89 1 16.5341 19.2251 3.62243 -3.29721
21 1 8.4737 13.7718 5.33925 5.32718
2 1 11.7805 17.4689 5.33925 -0.552983
22 1 10.9538 14.8809 6.24486 -3.47626
35 1 13.4339 13.7718 5.33925 5.32718
97 1 13.2272 14.0491 4.93365 5.53097
1 1 16.7407 17.4689 5.33925 -0.552983
44 1 15.914 14.8809 6.24486 -3.47626
109 1 18.1875 14.0491 4.93365 5.53097
4 1 11.7805 19.6872 7.15047 -3.45329
7 1 14.2606 20.7963 8.05608 -3.36875
9 1 14.2606 18.5781 6.24486 -2.29326
3 1 19.2208 18.5781 6.24486 -2.29326
5 1 15.0873 21.1661 5.33925 -0.675982
6 1 16.7407 19.6872 7.15047 -3.45329
8 2 16.7407 21.9055 8.96168 -3.32735
13 1 19.2208 20.7963 8.05608 -3.36875
71 1 14.8807 17.7462 4.93365 -1.53747
83 1 16.5341 21.4433 4.93365 -1.05251
10 2 21.7009 21.9055 8.96168 -3.32735
14 1 20.0475 21.1661 5.33925 -0.675982
85 1 19.8409 17.7462 4.93365 -1.53747
99 1 21.4943 21.4433 4.93365 -1.05251
20 1 12.6072 22.2752 6.24486 -2.80974
15 1 17.5674 22.2752 6.24486 -2.80974
17 1 15.0873 23.3843 7.15047 -3.45094
19 2 15.0873 25.6026 8.96168 -3.31517
34 1 17.5674 24.4935 8.05608 -3.39038
16 1 20.0475 23.3843 7.15047 -3.45094
18 1 22.5277 24.4935 8.05608 -3.39038
31 2 20.0475 25.6026 8.96168 -3.31517
36 1 18.3941 27.0815 7.15047 -3.48731
46 1 15.914 28.1906 8.05608 -3.34407
53 2 18.3941 29.2997 8.96168 -3.32528
41 1 23.3544 27.0815 7.15047 -3.48731
42 1 20.8742 28.1906 8.05608 -3.34407
43 2 23.3544 29.2997 8.96168 -3.32528
32 2 17.5674 26.7117 9.86729 -3.30191
33 2 20.0475 27.8209 10.7729 -3.32528
38 1 22.5277 28.93 11.6785 -3.34407
40 2 22.5277 26.7117 9.86729 -3.30191
49 1 20.0475 30.0392 12.5841 -3.48731
60 2 20.8742 30.4089 9.86729 -3.30191
37 2 25.0078 27.8209 10.7729 -3.32528
39 1 25.0078 30.0392 12.5841 -3.48731
45 2 25.8345 30.4089 9.86729 -3.30191
52 1 27.4879 28.93 11.6785 -3.34407
57 2 23.3544 31.518 10.7729 -3.31517
58 1 20.8742 32.6271 11.6785 -3.39038
59 1 23.3544 33.7363 12.5841 -3.45094
11 2 24.1811 34.106 9.86729 -3.29668
54 2 28.3146 31.518 10.7729 -3.31517
61 1 25.8345 34.8454 13.4897 -2.80974
62 1 25.8345 32.6271 11.6785 -3.39038
63 1 28.3146 33.7363 12.5841 -3.45094
26 2 29.1413 34.106 9.86729 -3.29668
66 1 30.7947 34.8454 13.4897 -2.80974
23 2 21.7009 35.2151 10.7729 -3.32735
65 1 23.3544 35.9546 14.3953 -0.675982
12 2 26.6612 35.2151 10.7729 -3.32735
27 1 26.6612 37.4334 12.5841 -3.45329
28 1 24.1811 38.5426 13.4897 -2.29326
30 1 24.1811 36.3243 11.6785 -3.36875
64 1 28.3146 35.9546 14.3953 -0.675982
127 1 26.8678 35.6773 14.8009 -1.05251
24 1 29.1413 36.3243 11.6785 -3.36875
25 1 31.6214 37.4334 12.5841 -3.45329
48 1 29.1413 38.5426 13.4897 -2.29326
117 1 33.4815 39.3744 14.8009 -1.53747
140 1 31.8281 35.6773 14.8009 -1.05251
29 1 26.6612 39.6517 14.3953 -0.552983
56 1 27.4879 42.2397 13.4897 -3.47626
47 1 31.6214 39.6517 14.3953 -0.552983
50 1 32.4481 42.2397 13.4897 -3.47626
55 1 29.968 43.3488 14.3953 5.32718
115 1 30.1747 43.0715 14.8009 5.53097
51 1 34.9282 43.3488 14.3953 5.32718
129 1 35.1349 43.0715 14.8009 5.53097
107 1 28.5212 39.3744 14.8009 -1.53747
138 1 26.8678 37.8956 16.1122 -3.29721
139 1 24.3877 36.7864 15.2065 -2.00216
135 1 29.3479 36.7864 15.2065 -2.00216
137 1 31.8281 37.8956 16.1122 -3.29721
110 1 28.5212 43.811 17.9234 -3.34532
114 1 28.5212 41.5927 16.1122 -3.41673
116 1 26.0411 40.4835 15.2065 -1.29237
120 1 26.0411 42.7018 17.0178 -3.31028
111 1 31.0014 40.4835 15.2065 -1.29237
112 1 31.0014 42.7018 17.0178 -3.31028
113 1 33.4815 41.5927 16.1122 -3.41673
122 1 33.4815 43.811 17.9234 -3.34532
128 1 27.6945 44.1807 15.2065 -3.42956
132 1 27.6945 46.3989 17.0178 -3.28686
118 2 31.0014 44.9201 18.829 -3.33412
119 1 30.1747 47.5081 17.9234 -3.34965
123 1 32.6548 44.1807 15.2065 -3.42956
124 1 32.6548 46.3989 17.0178 -3.28686
126 1 30.1747 45.2898 16.1122 -3.35364
121 2 35.9616 44.9201 18.829 -3.33412
125 1 35.1349 45.2898 16.1122 -3.35364
134 1 35.1349 47.5081 17.9234 -3.34965
130 2 32.6548 48.6172 18.829 -3.34871
131 1 31.8281 51.2052 17.9234 -3.3502
142 1 29.3479 50.0961 17.0178 -3.27773
133 2 37.615 48.6172 18.829 -3.34871
136 1 34.3082 50.0961 17.0178 -3.27773
141 2 34.3082 52.3144 18.829 -3.33001
144 1 36.7883 51.2052 17.9234 -3.3502
143 2 39.2684 52.3144 18.829 -3.33001
