#Lammps coordinate file for CSL - Axis: [1 1 1]  Angle: (1, 3) -> 59.99999999999999  Plane indices: [0 1 1]  z-position: [4.9336451853244885 14.800935555973464]  Repeats: 1 1 (3, 3) (black, white)  Fixed: 2.228  Boundary equiv: True
144 atoms

2 atom types

0.0 9.920433458271871 xlo xhi
0.0 11.091381789479609 ylo yhi
0.0 19.734580741297954 zlo zhi
4.9602167291359365 28.521246192531635 46.02923442634038 xy xz yz

Atoms

1 1 16.740731460833786 17.468926318430384 5.339252716211904
2 1 21.70094818996972 17.468926318430384 5.339252716211904
3 1 19.220839825401754 18.578064497378342 6.24486024709932
4 1 21.70094818996972 19.687202676326308 7.150467777986734
5 1 25.00775934272701 21.166053581590255 5.339252716211904
6 1 16.740731460833786 19.687202676326308 7.150467777986734
7 1 14.260623096265817 20.796340855274266 8.05607530887415
8 2 16.740731460833786 21.90547903422223 8.961682839761563
9 1 14.260623096265817 18.578064497378346 6.244860247099318
10 2 21.70094818996972 21.90547903422223 8.961682839761563
11 2 19.220839825401754 23.01461721317019 9.867290370648979
12 2 21.70094818996972 24.12375539211815 10.772897901536393
13 1 19.220839825401754 20.796340855274266 8.05607530887415
14 1 20.047542613591073 21.166053581590255 5.339252716211904
15 1 17.56743424902311 22.275191760538213 6.244860247099318
16 1 20.047542613591073 23.38432993948618 7.150467777986734
17 1 25.00775934272701 23.384329939486175 7.150467777986734
18 1 22.527650978159045 24.493468118434137 8.05607530887415
19 2 25.007759342727013 25.602606297382096 8.961682839761563
20 1 22.52765097815904 22.275191760538213 6.24486024709932
21 1 23.354353766348368 24.863180844750126 5.339252716211902
22 1 25.834462130916336 25.972319023698084 6.244860247099318
23 2 16.740731460833786 24.12375539211815 10.772897901536393
24 1 14.260623096265817 25.232893571066114 11.678505432423808
25 1 16.740731460833786 26.342031750014073 12.584112963311222
26 2 14.260623096265817 23.01461721317019 9.867290370648979
27 1 21.700948189969722 26.342031750014073 12.584112963311222
28 1 19.220839825401754 27.45116992896203 13.489720494198638
29 1 21.700948189969722 28.560308107909997 14.395328025086053
30 1 19.220839825401754 25.232893571066114 11.678505432423808
31 2 20.047542613591077 25.6026062973821 8.961682839761563
32 2 17.56743424902311 26.71174447633006 9.867290370648979
33 2 20.047542613591077 27.82088265527802 10.772897901536393
34 1 17.56743424902311 24.493468118434137 8.05607530887415
35 1 18.39413703721243 24.863180844750126 5.339252716211902
36 1 18.39413703721243 27.08145720264605 7.150467777986734
37 2 25.007759342727013 27.82088265527802 10.772897901536393
38 1 22.527650978159045 28.930020834225985 11.678505432423808
39 1 25.007759342727013 30.039159013173943 12.584112963311224
40 2 22.527650978159045 26.71174447633006 9.867290370648979
41 1 23.354353766348368 27.081457202646043 7.150467777986734
42 1 20.8742454017804 28.190595381594008 8.05607530887415
43 2 23.354353766348368 29.299733560541966 8.961682839761563
44 1 20.8742454017804 25.972319023698084 6.244860247099318
45 2 25.834462130916336 30.408871739489932 9.867290370648977
46 1 25.834462130916336 28.190595381594008 8.05607530887415
47 1 16.740731460833786 28.560308107909997 14.395328025086052
48 1 14.26062309626582 27.451169928962038 13.489720494198638
49 1 20.047542613591077 30.039159013173943 12.584112963311222
50 1 17.56743424902311 31.148297192121902 13.489720494198638
51 1 20.047542613591077 32.25743537106987 14.395328025086053
52 1 17.56743424902311 28.930020834225985 11.678505432423808
53 2 18.39413703721243 29.299733560541966 8.961682839761563
54 2 18.39413703721243 31.51800991843789 10.772897901536393
55 1 25.007759342727013 32.25743537106987 14.395328025086052
56 1 22.527650978159045 31.148297192121902 13.48972049419864
57 2 23.354353766348368 31.51800991843789 10.772897901536393
58 1 20.8742454017804 32.627148097385856 11.678505432423808
59 1 23.354353766348368 33.736286276333814 12.584112963311224
60 2 20.8742454017804 30.408871739489932 9.867290370648979
61 1 25.834462130916332 34.84542445528177 13.489720494198636
62 1 25.83446213091633 32.62714809738585 11.678505432423808
63 1 18.39413703721243 33.736286276333814 12.58411296331122
64 1 18.39413703721243 35.95456263422974 14.395328025086052
65 1 23.354353766348368 35.95456263422974 14.39532802508605
66 1 20.8742454017804 34.84542445528177 13.489720494198638
67 1 0.0 2.218276357895922 1.8112150617748295
68 2 2.4801083645679682 1.1091381789479602 0.9056075308874147
69 2 4.960216729135935 0.0 0.0
70 2 0.0 0.0 0.0
71 1 0.0 6.654829073687768 4.9336451853244885
72 1 2.4801083645679682 3.327414536843884 2.7168225926622442
73 1 2.4801083645679682 5.545690894739806 4.528037654437075
74 1 4.960216729135935 4.436552715791845 3.6224301235496585
75 1 0.0 4.436552715791845 3.6224301235496585
76 1 1.6534055763786455 5.915403621055794 1.811215061774829
77 2 7.440325093703903 1.1091381789479602 0.9056075308874147
78 1 7.440325093703903 3.327414536843884 2.7168225926622442
79 1 4.960216729135935 2.218276357895922 1.811215061774829
80 2 4.133513940946612 4.806265442107832 0.9056075308874143
81 2 6.61362230551458 3.697127263159871 -4.440892098500626e-16
82 2 1.6534055763786455 3.697127263159871 -2.220446049250313e-16
83 1 1.6534055763786455 10.351956336847639 4.9336451853244885
84 1 7.440325093703903 5.545690894739806 4.528037654437075
85 1 4.960216729135935 6.654829073687768 4.9336451853244885
86 1 4.133513940946612 7.024541800003755 2.716822592662244
87 1 4.133513940946612 9.242818157899677 4.528037654437075
88 1 6.61362230551458 8.133679978951715 3.6224301235496585
89 1 1.6534055763786455 8.133679978951717 3.6224301235496585
90 1 3.306811152757291 9.612530884215664 1.811215061774829
91 2 9.093730670082548 4.806265442107832 0.9056075308874143
92 1 9.093730670082547 7.024541800003755 2.716822592662244
93 1 6.61362230551458 5.915403621055793 1.811215061774829
94 2 5.7869195173252574 8.503392705267704 0.9056075308874139
95 2 8.267027881893226 7.394254526319742 -8.881784197001252e-16
96 2 3.306811152757291 7.394254526319742 -6.661338147750939e-16
97 1 3.306811152757291 14.04908360000751 4.9336451853244885
98 1 9.093730670082547 9.242818157899677 4.528037654437075
99 1 6.613622305514581 10.351956336847639 4.9336451853244885
100 1 5.7869195173252574 10.721669063163626 2.7168225926622434
101 1 5.7869195173252574 12.939945421059548 4.528037654437073
102 1 8.267027881893226 11.830807242111586 3.6224301235496585
103 1 3.306811152757291 11.830807242111588 3.6224301235496585
104 2 10.747136246461192 8.503392705267704 0.9056075308874139
105 1 10.747136246461192 10.721669063163626 2.7168225926622434
106 1 8.267027881893226 9.612530884215664 1.8112150617748286
107 1 28.521246192531635 39.374405352652616 14.800935555973467
108 1 10.747136246461192 12.939945421059548 4.528037654437073
109 1 8.267027881893226 14.04908360000751 4.9336451853244885
110 1 28.521246192531635 43.81095806844446 17.923365679523123
111 1 31.001354557099603 40.483543531600574 15.20654308686088
112 1 31.001354557099603 42.7018198894965 17.01775814863571
113 1 33.48146292166757 41.59268171054854 16.112150617748295
114 1 28.521246192531635 41.59268171054854 16.112150617748295
115 1 30.17465176891028 43.07153261581249 14.800935555973464
116 1 35.96157128623553 40.483543531600574 15.20654308686088
117 1 33.48146292166757 39.374405352652616 14.800935555973464
118 2 31.001354557099603 44.92009624739242 18.82897321041054
119 1 30.17465176891028 47.50808533160433 17.923365679523123
120 1 35.96157128623553 42.7018198894965 17.017758148635707
121 2 35.96157128623554 44.92009624739242 18.82897321041054
122 1 33.48146292166757 43.81095806844446 17.923365679523126
123 1 32.65476013347825 44.180670794760445 15.20654308686088
124 1 32.65476013347825 46.39894715265637 17.01775814863571
125 1 35.13486849804622 45.28980897370841 16.112150617748295
126 1 30.17465176891028 45.28980897370841 16.112150617748295
127 1 31.828057345288926 46.76865987897236 14.800935555973464
128 1 37.614976862614185 44.180670794760445 15.20654308686088
129 1 35.13486849804622 43.07153261581249 14.800935555973464
130 2 32.65476013347825 48.61722351055229 18.82897321041054
131 1 31.828057345288926 51.2052125947642 17.923365679523123
132 1 37.614976862614185 46.39894715265637 17.017758148635707
133 2 37.614976862614185 48.61722351055229 18.82897321041054
134 1 35.13486849804622 47.50808533160433 17.923365679523126
135 1 34.308165709856894 47.877798057920316 15.20654308686088
136 1 34.308165709856894 50.09607441581624 17.01775814863571
137 1 36.78827407442486 48.98693623686828 16.112150617748295
138 1 31.828057345288926 48.98693623686828 16.112150617748295
139 1 39.26838243899283 47.877798057920316 15.20654308686088
140 1 36.78827407442486 46.76865987897236 14.800935555973464
141 2 34.308165709856894 52.314350773712164 18.82897321041054
142 1 39.26838243899283 50.09607441581624 17.017758148635707
143 2 39.26838243899283 52.314350773712164 18.82897321041054
144 1 36.78827407442486 51.2052125947642 17.923365679523126
