ITEM: TIMESTEP
0
ITEM: NUMBER OF ATOMS
144
ITEM: BOX BOUNDS xy xz yz pp pp pp
0.0000000000000000e+00 3.7201625468519524e+01 4.9602167291359365e+00
0.0000000000000000e+00 4.6029234426340381e+01 2.2320975281111714e+01
0.0000000000000000e+00 1.9734580741297954e+01 3.4937852636860775e+01
ITEM: ATOMS id type x y z c_peatom
70 2 0 0 0 -3.30804
82 2 1.65341 3.69713 0 -3.31191
69 2 4.96022 3.93105e-16 0 -3.30804
81 2 6.61362 3.69713 0 -3.31191
80 2 4.13351 4.80627 0.905608 -3.33255
86 1 4.13351 7.02454 2.71682 -3.31874
88 1 6.61362 8.13368 3.62243 -3.03001
91 2 9.09373 4.80627 0.905608 -3.33255
92 1 9.09373 7.02454 2.71682 -3.31874
93 1 6.61362 5.9154 1.81122 -3.36274
94 2 5.78692 8.50339 0.905608 -3.36749
95 2 8.26703 7.39425 0 -3.31191
76 1 11.5738 5.9154 1.81122 -3.36274
89 1 11.5738 8.13368 3.62243 -3.03001
96 2 13.2272 7.39425 0 -3.31191
104 2 10.7471 8.50339 0.905608 -3.36749
68 2 7.44033 12.2005 0.905608 -3.349
98 1 9.09373 9.24282 4.52804 -2.30885
100 1 5.78692 10.7217 2.71682 -3.33821
102 1 8.26703 11.8308 3.62243 -2.52616
106 1 8.26703 9.61253 1.81122 -3.39415
77 2 12.4005 12.2005 0.905608 -3.349
79 1 9.92043 13.3097 1.81122 -3.35042
90 1 13.2272 9.61253 1.81122 -3.39415
103 1 13.2272 11.8308 3.62243 -2.52616
105 1 10.7471 10.7217 2.71682 -3.33821
108 1 10.7471 12.9399 4.52804 -2.54657
67 1 14.8807 13.3097 1.81122 -3.35042
87 1 14.0539 9.24282 4.52804 -2.30885
101 1 15.7074 12.9399 4.52804 -2.54657
72 1 7.44033 14.4188 2.71682 -3.31637
109 1 8.26703 14.0491 4.93365 -2.22034
74 1 9.92043 15.5279 3.62243 -3.38531
78 1 12.4005 14.4188 2.71682 -3.31637
84 1 12.4005 16.6371 4.52804 -1.4448
97 1 13.2272 14.0491 4.93365 -2.22034
73 1 17.3608 16.6371 4.52804 -1.4448
75 1 14.8807 15.5279 3.62243 -3.38531
2 1 8.68038 11.9232 5.33925 -2.20094
99 1 6.61362 10.352 4.93365 -2.61903
1 1 13.6406 11.9232 5.33925 -2.20094
9 1 11.1605 13.0324 6.24486 -2.58338
83 1 11.5738 10.352 4.93365 -2.61903
3 1 16.1207 13.0324 6.24486 -2.58338
5 1 11.9872 15.6204 5.33925 -1.02583
6 1 13.6406 14.1415 7.15047 -3.19435
7 1 11.1605 15.2506 8.05608 -3.39049
8 2 13.6406 16.3598 8.96168 -3.34849
17 1 11.9872 17.8386 7.15047 -3.46958
85 1 9.92043 17.7462 4.93365 -1.14346
4 1 18.6008 14.1415 7.15047 -3.19435
10 2 18.6008 16.3598 8.96168 -3.34849
13 1 16.1207 15.2506 8.05608 -3.39049
14 1 16.9474 15.6204 5.33925 -1.02583
15 1 14.4673 16.7295 6.24486 -2.48061
16 1 16.9474 17.8386 7.15047 -3.46958
71 1 14.8807 17.7462 4.93365 -1.14346
20 1 19.4275 16.7295 6.24486 -2.48061
22 1 12.8139 20.4266 6.24486 -2.73679
31 2 16.9474 20.0569 8.96168 -3.31806
34 1 14.4673 18.9478 8.05608 -3.37551
35 1 15.294 19.3175 5.33925 -1.19424
36 1 15.294 21.5358 7.15047 -3.43101
42 1 17.7741 22.6449 8.05608 -3.40708
44 1 17.7741 20.4266 6.24486 -2.73679
18 1 19.4275 18.9478 8.05608 -3.37551
19 2 21.9076 20.0569 8.96168 -3.31806
21 1 20.2542 19.3175 5.33925 -1.19424
41 1 20.2542 21.5358 7.15047 -3.43101
46 1 22.7343 22.6449 8.05608 -3.40708
53 2 15.294 23.754 8.96168 -3.3358
43 2 20.2542 23.754 8.96168 -3.3358
32 2 14.4673 21.1661 9.86729 -3.31324
33 2 16.9474 22.2752 10.7729 -3.3358
37 2 21.9076 22.2752 10.7729 -3.3358
40 2 19.4275 21.1661 9.86729 -3.31324
49 1 16.9474 24.4935 12.5841 -3.43101
51 1 16.9474 26.7117 14.3953 -1.19424
52 1 14.4673 23.3843 11.6785 -3.40708
54 2 15.294 25.9723 10.7729 -3.31806
58 1 17.7741 27.0815 11.6785 -3.37551
60 2 17.7741 24.8632 9.86729 -3.31324
38 1 19.4275 23.3843 11.6785 -3.40708
39 1 21.9076 24.4935 12.5841 -3.43101
45 2 22.7343 24.8632 9.86729 -3.31324
55 1 21.9076 26.7117 14.3953 -1.19424
56 1 19.4275 25.6026 13.4897 -2.73679
57 2 20.2542 25.9723 10.7729 -3.31806
62 1 22.7343 27.0815 11.6785 -3.37551
50 1 24.3877 25.6026 13.4897 -2.73679
25 1 18.6008 31.8877 12.5841 -3.19435
66 1 17.7741 29.2997 13.4897 -2.48061
11 2 21.0809 28.5603 9.86729 -3.32099
23 2 18.6008 29.6694 10.7729 -3.34849
30 1 21.0809 30.7786 11.6785 -3.39049
59 1 20.2542 28.1906 12.5841 -3.46958
61 1 22.7343 29.2997 13.4897 -2.48061
65 1 20.2542 30.4089 14.3953 -1.02583
12 2 23.561 29.6694 10.7729 -3.34849
24 1 26.0411 30.7786 11.6785 -3.39049
26 2 26.0411 28.5603 9.86729 -3.32099
27 1 23.561 31.8877 12.5841 -3.19435
63 1 25.2144 28.1906 12.5841 -3.46958
64 1 25.2144 30.4089 14.3953 -1.02583
115 1 23.9744 31.9802 14.8009 -2.22034
117 1 27.2812 28.283 14.8009 -1.14346
129 1 28.9346 31.9802 14.8009 -2.22034
28 1 21.0809 32.9969 13.4897 -2.58338
29 1 23.561 34.106 14.3953 -2.20094
48 1 26.0411 32.9969 13.4897 -2.58338
127 1 25.6278 35.6773 14.8009 -2.61903
47 1 28.5212 34.106 14.3953 -2.20094
140 1 30.588 35.6773 14.8009 -2.61903
107 1 22.321 28.283 14.8009 -1.14346
114 1 22.321 30.5013 16.1122 -3.38531
116 1 19.8409 29.3922 15.2065 -1.4448
111 1 24.8011 29.3922 15.2065 -1.4448
112 1 24.8011 31.6104 17.0178 -3.31637
113 1 27.2812 30.5013 16.1122 -3.38531
120 1 29.7613 31.6104 17.0178 -3.31637
110 1 22.321 32.7196 17.9234 -3.35042
128 1 21.4943 33.0893 15.2065 -2.54657
139 1 23.1477 36.7864 15.2065 -2.30885
118 2 24.8011 33.8287 18.829 -3.349
119 1 23.9744 36.4167 17.9234 -3.39415
122 1 27.2812 32.7196 17.9234 -3.35042
123 1 26.4545 33.0893 15.2065 -2.54657
124 1 26.4545 35.3076 17.0178 -3.33821
126 1 23.9744 34.1984 16.1122 -2.52616
121 2 29.7613 33.8287 18.829 -3.349
125 1 28.9346 34.1984 16.1122 -2.52616
132 1 31.4147 35.3076 17.0178 -3.33821
134 1 28.9346 36.4167 17.9234 -3.39415
135 1 28.1079 36.7864 15.2065 -2.30885
130 2 26.4545 37.5258 18.829 -3.36749
131 1 25.6278 40.1138 17.9234 -3.36274
138 1 25.6278 37.8956 16.1122 -3.03001
133 2 31.4147 37.5258 18.829 -3.36749
136 1 28.1079 39.0047 17.0178 -3.31874
137 1 30.588 37.8956 16.1122 -3.03001
141 2 28.1079 41.223 18.829 -3.33255
144 1 30.588 40.1138 17.9234 -3.36274
142 1 33.0681 39.0047 17.0178 -3.31874
143 2 33.0681 41.223 18.829 -3.33255
