ITEM: TIMESTEP
280
ITEM: NUMBER OF ATOMS
144
ITEM: BOX BOUNDS xy xz yz pp pp pp
0.0000000000000000e+00 2.6041137827963674e+01 4.9602167291359365e+00
0.0000000000000000e+00 4.8802079873710284e+01 1.1160487640555864e+01
0.0000000000000000e+00 2.0734580741297954e+01 3.7710698084230678e+01
ITEM: ATOMS id type x y z c_peatom
69 2 4.96022 4.0384e-16 0 -3.33058
70 2 0 0 0 -3.33058
81 2 6.61362 3.69713 0 -3.35519
82 2 11.5738 3.69713 0 -3.33144
80 2 4.13351 4.80627 0.905608 -3.3263
86 1 4.25968 7.017 2.48237 -3.2784
88 1 6.80554 8.11756 3.22673 -3.17374
91 2 9.09373 4.80627 0.905608 -3.31648
92 1 9.16936 6.9664 2.51336 -3.31274
93 1 6.68449 5.91505 1.69119 -3.3246
94 2 5.78692 8.50339 0.905608 -3.32393
95 2 8.26703 7.39425 0 -3.33144
76 1 11.5913 5.87059 1.70879 -3.34242
89 1 11.745 8.08307 3.17579 -3.14139
96 2 13.2272 7.39425 0 -3.35519
104 2 10.7471 8.50339 0.905608 -3.32902
87 1 4.19664 9.24349 3.91467 -3.14724
68 2 7.44033 12.2005 0.905608 -3.29262
79 1 9.91238 13.3633 1.66753 -3.32911
98 1 9.11476 9.31698 3.92508 -3.12823
100 1 5.81779 10.8047 2.60722 -3.36826
101 1 5.87664 13.0997 4.192 -3.17627
102 1 8.21382 11.9164 3.45013 -3.32476
106 1 8.28062 9.67054 1.58056 -3.2379
77 2 12.4005 12.2005 0.905608 -3.28215
90 1 13.2287 9.66916 1.57961 -3.23954
103 1 13.1929 11.9114 3.34711 -3.25306
105 1 10.7731 10.8469 2.64877 -3.38008
108 1 10.8383 13.3098 4.13603 -3.10145
72 1 7.51374 14.5265 2.62691 -3.30761
73 1 7.87105 16.8591 4.34045 -3.25869
74 1 10.0757 15.6739 3.39627 -3.27411
109 1 8.32784 14.1877 5.2232 -3.38077
67 1 14.8967 13.3841 1.69492 -3.32411
75 1 15.0816 15.657 3.74295 -3.3709
78 1 12.5457 14.5699 2.60211 -3.27361
84 1 12.6461 16.7759 4.50086 -3.33952
97 1 13.1664 14.0951 5.24583 -3.25661
99 1 6.53232 9.85202 5.16803 -3.26443
83 1 11.6504 9.71666 5.08724 -3.22813
1 1 9.78275 11.5599 5.43236 -3.05492
5 1 6.34105 16.5614 6.30509 -3.01055
6 1 8.19544 15.2664 7.70841 -3.26629
7 1 5.5646 16.5902 8.71866 -3.27897
9 1 5.53858 14.1477 6.76698 -3.29027
2 1 4.37059 11.574 5.52856 -3.06246
3 1 10.7834 13.647 6.8661 -3.12002
4 1 12.9353 15.3999 7.64689 -3.29449
13 1 10.5839 16.6438 8.63295 -3.33724
14 1 10.5056 15.8549 5.99898 -3.07488
8 2 8.06035 17.7462 9.46168 -3.27424
15 1 8.7068 17.8148 6.98476 -3.15897
34 1 8.8513 20.2893 8.83758 -3.16037
35 1 9.03687 20.2782 6.4254 -3.02338
85 1 10.3831 18.2172 5.09021 -3.14067
10 2 13.0206 17.7462 9.46168 -3.25264
16 1 11.3605 19.3091 7.64035 -3.40744
18 1 13.8552 20.2298 8.85705 -3.13185
20 1 13.661 17.8588 6.98879 -3.1167
21 1 13.8343 20.462 6.42715 -3.08619
31 2 11.3672 21.4433 9.46168 -3.31091
44 1 7.18504 11.9639 6.36178 -3.19898
71 1 15.1328 18.298 4.98738 -3.06036
17 1 16.2979 19.2766 7.56661 -3.50924
19 2 16.3274 21.4433 9.46168 -3.36071
22 1 17.0656 22.1993 7.09315 -3.16306
36 1 9.75862 22.8025 7.94195 -3.16555
53 2 9.71376 25.1405 9.46168 -3.38193
41 1 14.4177 22.7633 7.96049 -3.14557
42 1 12.1437 24.051 8.78168 -3.22603
43 2 14.674 25.1405 9.46168 -3.36838
46 1 17.2295 24.0574 8.85926 -3.15599
32 2 8.88705 22.5525 10.3673 -3.27575
52 1 8.9372 24.7511 11.9529 -3.22603
33 2 11.3672 23.6616 11.2729 -3.38193
38 1 13.7718 24.7447 11.8753 -3.15599
40 2 13.8473 22.5525 10.3673 -3.27505
49 1 11.3223 25.9996 12.7926 -3.16555
60 2 12.1939 26.2496 10.3673 -3.27575
37 2 16.3274 23.6616 11.2729 -3.36838
39 1 16.5837 26.0388 12.7741 -3.14557
45 2 17.1541 26.2496 10.3673 -3.27505
50 1 13.8959 36.8382 14.3728 -3.19898
54 2 9.71376 27.3587 11.2729 -3.31091
63 1 9.72041 29.493 13.0942 -3.40744
11 2 10.5405 18.8553 10.3673 -3.32607
51 1 12.0441 28.5239 14.3092 -3.02338
56 1 13.9358 26.6028 13.6414 -3.16306
57 2 14.674 27.3587 11.2729 -3.36071
58 1 12.2296 28.5128 11.897 -3.16037
59 1 14.7034 29.5255 13.168 -3.50924
66 1 12.3741 30.9873 13.7498 -3.15897
26 2 15.5007 18.8553 10.3673 -3.32607
55 1 17.167 28.3401 14.3074 -3.08619
61 1 17.3404 30.9433 13.7458 -3.1167
62 1 17.1462 28.5723 11.8775 -3.13185
23 2 13.0206 31.0559 11.2729 -3.27424
25 1 12.8855 33.5357 13.0262 -3.26629
28 1 15.5423 34.6544 13.9676 -3.29027
30 1 15.5163 32.2119 12.0159 -3.27897
65 1 14.7399 32.2407 14.4295 -3.01055
12 2 17.9808 31.0559 11.2729 -3.25264
24 1 20.4174 32.1582 12.1016 -3.33724
27 1 18.066 33.4022 13.0877 -3.29449
48 1 20.218 35.1551 13.8685 -3.12002
64 1 20.4957 32.9472 14.7356 -3.07488
47 1 21.2186 37.2422 15.3022 -3.05492
29 1 16.7103 37.2281 15.206 -3.06246
107 1 10.6978 30.5848 15.6444 -3.14067
111 1 13.2099 31.943 16.3941 -3.25869
112 1 13.5672 34.2756 18.1077 -3.30761
114 1 11.0052 33.1282 17.3383 -3.27411
115 1 12.7531 34.6143 15.5114 -3.38077
113 1 15.9197 33.145 16.9916 -3.3709
116 1 18.3553 32.0261 16.2337 -3.33952
117 1 15.8685 30.5041 15.7472 -3.06036
120 1 18.4556 34.2321 18.1325 -3.27361
129 1 17.835 34.707 15.4888 -3.25661
110 1 11.1685 35.4388 19.0671 -3.32911
118 2 13.6406 36.6016 19.829 -3.29262
119 1 12.8003 39.1315 19.154 -3.2379
123 1 15.2043 35.7023 16.5426 -3.17627
124 1 15.2631 37.9974 18.1274 -3.36826
126 1 12.8671 36.8856 17.2845 -3.32476
127 1 14.5486 38.9501 15.5666 -3.26443
121 2 18.6008 36.6016 19.829 -3.28215
122 1 16.1047 35.4179 19.0397 -3.32411
125 1 17.8084 36.8907 17.3875 -3.25306
128 1 20.1631 35.4923 16.5985 -3.10145
132 1 20.2283 37.9552 18.0858 -3.38008
134 1 17.7726 39.1329 19.155 -3.23954
135 1 16.8843 39.5586 16.8199 -3.14724
140 1 19.3509 39.0854 15.6473 -3.22813
139 1 21.8866 39.4851 16.8095 -3.12823
130 2 15.294 40.2987 19.829 -3.32393
131 1 14.3964 42.887 19.0434 -3.3246
138 1 14.2754 40.6845 17.5078 -3.17374
133 2 20.2542 40.2987 19.829 -3.32902
136 1 16.8212 41.7851 18.2522 -3.2784
137 1 19.2563 40.719 17.5588 -3.14139
141 2 16.9474 43.9958 19.829 -3.3263
144 1 19.4101 42.9315 19.0258 -3.34242
142 1 21.832 41.8357 18.2212 -3.31274
143 2 21.9076 43.9958 19.829 -3.31648
