ITEM: TIMESTEP
100000
ITEM: NUMBER OF ATOMS
144
ITEM: BOX BOUNDS xy xz yz pp pp pp
0.0000000000000000e+00 2.7901219101389643e+01 4.9602167291359365e+00
0.0000000000000000e+00 5.0188502597395242e+01 1.3020568913981837e+01
0.0000000000000000e+00 2.2734580741297954e+01 3.9097120807915637e+01
ITEM: ATOMS id type x y z c_peatom
70 2 0 0 0 -3.36734
69 2 4.96022 0 0 -3.36734
81 2 6.61362 3.69713 0 -3.35321
82 2 11.5738 3.69713 0 -3.35321
80 2 4.13351 4.80627 0.905608 -3.35272
86 1 4.23911 6.91516 2.75188 -3.33971
88 1 6.88536 7.93803 3.74967 -3.28026
91 2 9.09373 4.80627 0.905608 -3.35272
92 1 9.19933 6.91516 2.75188 -3.33971
93 1 6.65743 5.85433 1.85983 -3.35584
94 2 5.78692 8.50339 0.905608 -3.34414
95 2 8.26703 7.39425 0 -3.35321
76 1 11.6176 5.85433 1.85983 -3.35584
89 1 11.8456 7.93803 3.74967 -3.28026
96 2 13.2272 7.39425 0 -3.35321
104 2 10.7471 8.50339 0.905608 -3.34414
68 2 7.44033 12.2005 0.905608 -3.37458
100 1 5.73904 10.6105 2.61668 -3.26737
101 1 5.40423 12.6092 4.51759 -3.22188
102 1 8.06048 11.5301 3.64771 -3.26609
106 1 8.26595 9.51095 1.7965 -3.35852
77 2 12.4005 12.2005 0.905608 -3.37458
79 1 9.8638 13.2347 1.80885 -3.37997
90 1 13.2262 9.51095 1.7965 -3.35852
103 1 13.0207 11.5301 3.64771 -3.26609
105 1 10.6993 10.6105 2.61668 -3.26737
108 1 10.3644 12.6092 4.51759 -3.22188
67 1 14.824 13.2347 1.80885 -3.37997
72 1 7.37631 14.2827 2.72945 -3.37332
74 1 9.86206 15.3451 3.59234 -3.3337
78 1 12.3365 14.2827 2.72945 -3.37332
75 1 14.8223 15.3451 3.59234 -3.3337
87 1 4.62325 9.07242 4.56112 -3.16776
98 1 9.58347 9.07242 4.56112 -3.16776
109 1 7.69385 13.6056 5.48214 -3.17874
97 1 12.6541 13.6056 5.48214 -3.17874
73 1 7.40015 16.2942 4.66079 -3.33667
5 1 7.38363 17.942 6.82023 -3.28607
6 1 9.25391 16.3406 8.56939 -3.27823
9 1 7.01193 15.2405 7.70865 -3.15877
84 1 12.3604 16.2942 4.66079 -3.33667
1 1 9.90331 14.7512 6.30469 -3.16037
3 1 11.9722 15.2405 7.70865 -3.15877
14 1 12.3438 17.942 6.82023 -3.28607
85 1 9.88492 17.4444 5.45082 -3.28575
2 1 14.8635 14.7512 6.30469 -3.16037
4 1 14.2141 16.3406 8.56939 -3.27823
71 1 14.8451 17.4444 5.45082 -3.28575
17 1 7.31496 20.0372 8.67002 -3.33675
99 1 12.4536 20.6408 5.97135 -3.17019
15 1 9.82189 19.0612 7.64404 -3.34012
16 1 12.2752 20.0372 8.67002 -3.33675
35 1 10.2072 21.7407 6.82049 -3.20077
44 1 12.8413 22.7655 7.77067 -3.23472
83 1 17.4138 20.6408 5.97135 -3.17019
20 1 14.7821 19.0612 7.64404 -3.34012
21 1 15.1674 21.7407 6.82049 -3.20077
22 1 17.8015 22.7655 7.77067 -3.23472
36 1 10.4908 23.8354 8.62482 -3.2749
41 1 15.451 23.8354 8.62482 -3.2749
7 1 6.58771 17.3979 9.53024 -3.34685
13 1 11.5479 17.3979 9.53024 -3.34685
8 2 8.99039 18.4394 10.4617 -3.36172
10 2 13.9506 18.4394 10.4617 -3.36172
31 2 12.2972 22.1365 10.4617 -3.37614
34 1 9.79567 21.0989 9.55615 -3.37674
18 1 14.7559 21.0989 9.55615 -3.37674
19 2 17.2574 22.1365 10.4617 -3.37614
32 2 9.8171 23.2457 11.3673 -3.36912
33 2 12.2972 24.3548 12.2729 -3.35766
42 1 13.0937 24.7923 9.65481 -3.28638
52 1 9.84727 25.3962 13.0798 -3.28638
53 2 10.6438 25.8337 10.4617 -3.35766
60 2 13.1239 26.9428 11.3673 -3.36912
37 2 17.2574 24.3548 12.2729 -3.35766
38 1 14.8075 25.3962 13.0798 -3.28638
40 2 14.7773 23.2457 11.3673 -3.36912
43 2 15.604 25.8337 10.4617 -3.35766
45 2 18.0841 26.9428 11.3673 -3.36912
46 1 18.0539 24.7923 9.65481 -3.28638
54 2 10.6438 28.052 12.2729 -3.37614
58 1 13.1453 29.0896 13.1784 -3.37674
23 2 13.9506 31.7491 12.2729 -3.36172
11 2 16.4307 30.6399 11.3673 -3.35156
57 2 15.604 28.052 12.2729 -3.37614
62 1 18.1056 29.0896 13.1784 -3.37674
26 2 21.3909 30.6399 11.3673 -3.35156
12 2 18.9108 31.7491 12.2729 -3.36172
30 1 16.3533 32.7906 13.2043 -3.34685
24 1 21.3135 32.7906 13.2043 -3.34685
49 1 12.4502 26.3531 14.1098 -3.2749
39 1 17.4105 26.3531 14.1098 -3.2749
50 1 10.0997 27.423 14.9639 -3.23472
51 1 12.7338 28.4478 15.9141 -3.20077
66 1 13.1191 31.1273 15.0905 -3.34012
127 1 10.4874 29.5477 16.7632 -3.17019
55 1 17.694 28.4478 15.9141 -3.20077
56 1 15.0599 27.423 14.9639 -3.23472
59 1 15.626 30.1513 14.0646 -3.33675
61 1 18.0793 31.1273 15.0905 -3.34012
140 1 15.4476 29.5477 16.7632 -3.17019
63 1 20.5863 30.1513 14.0646 -3.33675
25 1 13.6871 33.8479 14.1652 -3.27823
47 1 13.0377 35.4373 16.4299 -3.16037
107 1 13.0561 32.7441 17.2838 -3.28575
28 1 15.9291 34.948 15.0259 -3.15877
65 1 15.5574 32.2465 15.9144 -3.28607
117 1 18.0163 32.7441 17.2838 -3.28575
29 1 17.9979 35.4373 16.4299 -3.16037
111 1 15.5408 33.8943 18.0738 -3.33667
27 1 18.6473 33.8479 14.1652 -3.27823
48 1 20.8893 34.948 15.0259 -3.15877
64 1 20.5176 32.2465 15.9144 -3.28607
116 1 20.5011 33.8943 18.0738 -3.33667
115 1 15.2471 36.5829 17.2524 -3.17874
129 1 20.2074 36.5829 17.2524 -3.17874
135 1 18.3177 41.1161 18.1735 -3.16776
139 1 23.278 41.1161 18.1735 -3.16776
114 1 13.0789 34.8434 19.1422 -3.3337
112 1 15.5647 35.9058 20.0051 -3.37332
113 1 18.0392 34.8434 19.1422 -3.3337
120 1 20.5249 35.9058 20.0051 -3.37332
110 1 13.0772 36.9538 20.9257 -3.37997
118 2 15.5007 37.988 21.829 -3.37458
119 1 14.6751 40.6776 20.9381 -3.35852
122 1 18.0374 36.9538 20.9257 -3.37997
123 1 17.5368 37.5793 18.217 -3.22188
124 1 17.202 39.578 20.1179 -3.26737
126 1 14.8805 38.6584 19.0869 -3.26609
121 2 20.4609 37.988 21.829 -3.37458
125 1 19.8407 38.6584 19.0869 -3.26609
128 1 22.497 37.5793 18.217 -3.22188
132 1 22.1622 39.578 20.1179 -3.26737
134 1 19.6353 40.6776 20.9381 -3.35852
130 2 17.1541 41.6851 21.829 -3.34414
131 1 16.2836 44.3342 20.8747 -3.35584
138 1 16.0556 42.2505 18.9849 -3.28026
133 2 22.1143 41.6851 21.829 -3.34414
136 1 18.7019 43.2733 19.9827 -3.33971
137 1 21.0159 42.2505 18.9849 -3.28026
141 2 18.8075 45.3822 21.829 -3.35272
144 1 21.2438 44.3342 20.8747 -3.35584
142 1 23.6621 43.2733 19.9827 -3.33971
143 2 23.7677 45.3822 21.829 -3.35272
