#Lammps coordinate file for CSL - Axis: [1 1 1]  Angle: (1, 5) -> 38.213210701738184  Plane indices: [1 0 0]  z-position: [2.806853043891318 8.18545180152187]  Repeats: 1 1 (3, 3) (black, white)  Fixed: 2.0  Boundary equiv: True
504 atoms

2 atom types

0.0 3.7416573867739413 xlo xhi
0.0 3.2403703492039093 ylo yhi
0.0 10.780708248276312 zlo zhi
-1.8708286933869658 0.12595359959321462 0.4591955008502601 xy xz yz

Atoms

1 1 3.1377899962785945 1.0830381519313532 7.699755200896643
2 1 2.6032675124537468 1.545948201817626 7.699755200896644
3 1 2.0687450286288986 2.008858251703899 7.699755200896644
4 1 1.6678531657602638 3.16613337641958 7.699755200896646
5 1 1.5342225448040505 2.4717683015901724 7.699755200896645
6 1 0.9997000609792025 2.934678351476445 7.699755200896646
7 1 2.202375649585112 2.7032233265333065 7.699755200896645
8 1 2.336006270541324 2.3174649516280805 7.122404931707023
9 1 1.8014837867164752 2.7803750015143542 7.122404931707023
10 1 0.46517757715435437 3.3975884013627184 7.699755200896646
11 1 1.2669613028916276 3.243285051400627 7.122404931707025
12 1 2.0687450286289004 3.0889817014385357 6.545054662517402
13 1 2.4696368914975335 0.8515831269882181 7.699755200896643
14 1 1.8014837867164717 0.6201281020450826 7.699755200896642
15 1 3.0041593753223816 0.3886730771019449 7.699755200896642
16 1 3.2714206172348064 0.6972797770261263 7.122404931707021
17 1 2.603267512453745 0.46582475208299123 7.122404931707021
18 1 3.405051238191018 0.31152140212089985 6.545054662517399
19 1 1.4005919238478377 1.7774032267607638 7.699755200896644
20 1 1.266961302891624 1.0830381519313559 7.699755200896643
21 1 0.732438819066776 1.5459482018176287 7.699755200896644
22 1 1.9351144076726854 1.314493176874491 7.699755200896644
23 1 2.2023756495851106 1.6230998767986728 7.122404931707022
24 1 2.068745028628897 0.9287348019692641 7.122404931707021
25 1 1.5342225448040487 1.3916448518555373 7.122404931707021
26 1 2.7368981334099587 1.1601898269123996 7.122404931707021
27 1 3.0041593753223834 1.468796526836581 6.5450546625174
28 1 2.8705287543661697 0.7744314520071731 6.5450546625173995
29 1 2.3360062705413216 1.237341501893446 6.5450546625174
30 2 3.1377899962785945 1.0830381519313546 5.967704393327778
31 1 0.3315469561981411 2.70322332653331 7.699755200896646
32 1 0.1979163352419274 2.0088582517039018 7.699755200896644
33 1 -0.33660614858292026 2.471768301590175 7.699755200896645
34 1 0.8660694400229892 2.240313276647037 7.699755200896645
35 1 1.1333306819354143 2.5489199765712187 7.122404931707023
36 1 0.9997000609792007 1.8545549017418104 7.122404931707023
37 1 0.4651775771543526 2.317464951628083 7.122404931707023
38 1 1.6678531657602622 2.0860099266849454 7.122404931707023
39 1 1.9351144076726872 2.3946166266091273 6.545054662517402
40 1 1.8014837867164737 1.700251551779719 6.5450546625174
41 1 1.2669613028916253 2.1631616016659923 6.545054662517401
42 1 2.4696368914975353 1.9317065767228543 6.545054662517401
43 2 2.6032675124537468 1.5459482018176278 5.96770439332778
44 2 2.0687450286288986 2.008858251703901 5.96770439332778
45 1 -0.8711286324077684 2.934678351476448 7.699755200896646
46 1 -1.4056511162326166 3.3975884013627207 7.699755200896646
47 1 -0.2029755276267066 3.166133376419583 7.699755200896646
48 1 -0.06934490667049556 2.7803750015143565 7.122404931707024
49 1 -0.6038673904953432 3.2432850514006297 7.122404931707025
50 1 0.5988081981105663 3.011830026457492 7.122404931707024
51 1 0.8660694400229915 3.3204367263816734 6.545054662517403
52 1 0.7324388190667778 2.626071651552265 6.545054662517402
53 1 0.19791633524192961 3.088981701438538 6.545054662517402
54 1 1.400591923847839 2.8575266764954 6.545054662517402
55 2 1.6678531657602642 3.166133376419582 5.967704393327781
56 2 1.5342225448040505 2.4717683015901737 5.9677043933277805
57 2 0.9997000609792025 2.934678351476447 5.967704393327781
58 2 2.202375649585112 2.703223326533309 5.9677043933277805
59 2 2.3360062705413234 2.3174649516280823 5.390354124138159
60 2 1.8014837867164752 2.780375001514355 5.390354124138159
61 2 0.4651775771543548 3.39758840136272 5.967704393327781
62 2 1.2669613028916273 3.2432850514006284 5.39035412413816
63 2 2.0687450286289 3.088981701438537 4.813003854948538
64 1 1.1333306819354108 0.3886730771019471 7.699755200896642
65 1 1.9351144076726836 0.23436972713985613 7.12240493170702
66 1 0.06428571428571458 1.3144931768744936 7.699755200896643
67 1 -0.06934490667049867 0.6201281020450853 7.699755200896642
68 1 0.5988081981105627 0.8515831269882204 7.699755200896642
69 1 0.8660694400229879 1.1601898269124018 7.122404931707021
70 1 0.7324388190667747 0.46582475208299434 7.122404931707021
71 1 0.1979163352419265 0.9287348019692672 7.122404931707021
72 1 1.4005919238478355 0.697279777026129 7.122404931707021
73 1 1.6678531657602607 1.0058864769503109 6.5450546625173995
74 1 1.5342225448040474 0.3115214021209025 6.545054662517399
75 1 0.9997000609791994 0.7744314520071758 6.5450546625173995
76 1 2.2023756495851083 0.5429764270640376 6.545054662517399
77 2 2.4696368914975335 0.851583126988219 5.967704393327778
78 2 1.8014837867164721 0.6201281020450844 5.967704393327778
79 2 3.0041593753223816 0.3886730771019462 5.967704393327778
80 2 3.2714206172348064 0.6972797770261281 5.390354124138156
81 2 2.603267512453745 0.465824752082993 5.390354124138156
82 2 3.4050512381910183 0.3115214021209016 4.813003854948534
83 1 -1.0047592533639818 2.2403132766470395 7.699755200896644
84 1 -0.47023676953913307 1.7774032267607665 7.699755200896644
85 1 -0.2029755276267088 2.086009926684948 7.122404931707023
86 1 -0.33660614858292204 1.3916448518555402 7.122404931707021
87 1 -0.8711286324077697 1.8545549017418135 7.122404931707023
88 1 0.33154695619813934 1.623099876798675 7.122404931707022
89 1 0.5988081981105645 1.931706576722857 6.5450546625174
90 1 0.46517757715435126 1.2373415018934488 6.5450546625174
91 1 -0.06934490667049689 1.700251551779722 6.5450546625174
92 1 1.1333306819354123 1.4687965268365837 6.5450546625174
93 2 1.4005919238478373 1.7774032267607656 5.96770439332778
94 2 1.2669613028916242 1.0830381519313574 5.967704393327779
95 2 0.732438819066776 1.5459482018176307 5.96770439332778
96 2 1.9351144076726854 1.3144931768744923 5.967704393327779
97 2 2.20237564958511 1.6230998767986742 5.390354124138157
98 2 2.0687450286288973 0.9287348019692663 5.390354124138157
99 2 1.5342225448040492 1.3916448518555393 5.390354124138157
100 2 2.7368981334099582 1.160189826912401 5.390354124138157
101 2 3.0041593753223834 1.4687965268365828 4.813003854948536
102 2 2.87052875436617 0.7744314520071744 4.813003854948535
103 2 2.336006270541322 1.237341501893448 4.813003854948536
104 1 3.137789996278595 1.0830381519313566 4.2356535857589135
105 1 -1.2720204952764047 3.011830026457494 7.122404931707024
106 1 -0.7374980114515565 2.548919976571221 7.122404931707023
107 1 -0.47023676953913174 2.857526676495403 6.545054662517402
108 1 -0.603867390495345 2.163161601665995 6.545054662517402
109 1 -1.1383898743201928 2.6260716515522677 6.545054662517402
110 1 0.06428571428571636 2.39461662660913 6.545054662517401
111 2 0.33154695619814156 2.7032233265333114 5.9677043933277805
112 2 0.19791633524192828 2.0088582517039035 5.96770439332778
113 2 -0.3366061485829198 2.471768301590177 5.9677043933277805
114 2 0.8660694400229892 2.240313276647038 5.96770439332778
115 2 1.1333306819354143 2.54891997657122 5.390354124138159
116 2 0.9997000609792012 1.8545549017418124 5.390354124138159
117 2 0.46517757715435304 2.317464951628085 5.390354124138159
118 2 1.6678531657602622 2.0860099266849472 5.390354124138158
119 2 1.9351144076726872 2.3946166266091287 4.813003854948537
120 2 1.801483786716474 1.700251551779721 4.813003854948536
121 2 1.2669613028916258 2.163161601665994 4.813003854948537
122 2 2.4696368914975353 1.9317065767228558 4.813003854948536
123 1 2.6032675124537468 1.5459482018176296 4.235653585758914
124 1 2.068745028628899 2.0088582517039026 4.235653585758915
125 1 -1.00475925336398 3.320436726381676 6.545054662517402
126 2 -0.8711286324077679 2.9346783514764496 5.967704393327781
127 2 -1.4056511162326162 3.397588401362723 5.967704393327781
128 2 -0.2029755276267066 3.1661333764195847 5.967704393327781
129 2 -0.06934490667049467 2.7803750015143582 5.390354124138159
130 2 -0.6038673904953432 3.2432850514006315 5.3903541241381605
131 2 0.5988081981105658 3.0118300264574933 5.390354124138159
132 2 0.866069440022991 3.3204367263816748 4.813003854948538
133 2 0.732438819066778 2.626071651552267 4.813003854948538
134 2 0.19791633524192961 3.08898170143854 4.813003854948538
135 2 1.400591923847839 2.857526676495402 4.813003854948538
136 1 1.6678531657602638 3.1661333764195834 4.235653585758916
137 1 1.5342225448040507 2.4717683015901755 4.235653585758915
138 1 0.9997000609792029 2.9346783514764487 4.235653585758916
139 1 2.202375649585112 2.7032233265333105 4.235653585758915
140 1 2.336006270541324 2.317464951628084 3.658303316569294
141 1 1.8014837867164757 2.7803750015143573 3.6583033165692944
142 1 0.4651775771543548 3.3975884013627216 4.235653585758917
143 1 1.2669613028916276 3.2432850514006306 3.6583033165692953
144 1 2.0687450286289004 3.088981701438539 3.0809530473796736
145 1 0.06428571428571325 0.2343697271398588 7.1224049317070195
146 1 0.33154695619813845 0.5429764270640403 6.545054662517399
147 2 1.1333306819354112 0.3886730771019493 5.967704393327778
148 2 1.935114407672684 0.23436972713985746 5.390354124138155
149 1 -0.20297552762671014 1.0058864769503135 6.5450546625174
150 2 0.06428571428571503 1.3144931768744954 5.967704393327779
151 2 -0.06934490667049822 0.6201281020450868 5.967704393327778
152 2 0.598808198110563 0.8515831269882221 5.967704393327778
153 2 0.8660694400229879 1.160189826912404 5.390354124138157
154 2 0.7324388190667749 0.46582475208299545 5.390354124138156
155 2 0.1979163352419265 0.9287348019692687 5.390354124138157
156 2 1.400591923847836 0.6972797770261308 5.390354124138157
157 2 1.6678531657602607 1.0058864769503126 4.813003854948535
158 2 1.5342225448040476 0.3115214021209043 4.813003854948534
159 2 0.9997000609791997 0.7744314520071773 4.813003854948534
160 2 2.202375649585109 0.5429764270640394 4.813003854948534
161 1 2.469636891497534 0.8515831269882213 4.2356535857589135
162 1 1.8014837867164726 0.620128102045086 4.2356535857589135
163 1 3.0041593753223816 0.388673077101948 4.2356535857589135
164 1 3.271420617234807 0.6972797770261299 3.6583033165692918
165 1 2.6032675124537454 0.46582475208299456 3.6583033165692913
166 1 3.4050512381910183 0.3115214021209034 3.0809530473796696
167 2 -1.0047592533639813 2.2403132766470413 5.96770439332778
168 2 -0.47023676953913307 1.7774032267607685 5.96770439332778
169 2 -0.20297552762670792 2.08600992668495 5.390354124138159
170 2 -0.33660614858292115 1.3916448518555418 5.390354124138157
171 2 -0.8711286324077693 1.8545549017418148 5.390354124138158
172 2 0.3315469561981398 1.623099876798677 5.390354124138157
173 2 0.598808198110565 1.9317065767228587 4.813003854948536
174 2 0.4651775771543517 1.2373415018934504 4.813003854948536
175 2 -0.06934490667049645 1.7002515517797234 4.813003854948536
176 2 1.1333306819354128 1.4687965268365857 4.813003854948536
177 1 1.4005919238478377 1.7774032267607673 4.235653585758915
178 1 1.2669613028916245 1.083038151931359 4.2356535857589135
179 1 0.7324388190667764 1.545948201817632 4.235653585758914
180 1 1.9351144076726858 1.3144931768744943 4.235653585758914
181 1 2.2023756495851106 1.623099876798676 3.658303316569293
182 1 2.0687450286288973 0.9287348019692676 3.6583033165692918
183 1 1.5342225448040494 1.3916448518555407 3.6583033165692926
184 1 2.7368981334099587 1.160189826912403 3.6583033165692926
185 1 3.0041593753223834 1.4687965268365846 3.0809530473796714
186 1 2.8705287543661706 0.7744314520071762 3.08095304737967
187 1 2.3360062705413225 1.2373415018934493 3.080953047379671
188 2 -1.2720204952764047 3.011830026457496 5.39035412413816
189 2 -0.737498011451556 2.548919976571223 5.390354124138159
190 2 -0.4702367695391313 2.8575266764954046 4.813003854948538
191 2 -0.6038673904953441 2.1631616016659962 4.813003854948536
192 2 -1.1383898743201928 2.6260716515522695 4.813003854948538
193 2 0.06428571428571636 2.3946166266091318 4.813003854948537
194 1 0.33154695619814156 2.703223326533313 4.235653585758916
195 1 0.1979163352419285 2.008858251703905 4.235653585758915
196 1 -0.3366061485829198 2.471768301590178 4.235653585758915
197 1 0.8660694400229897 2.2403132766470404 4.235653585758915
198 1 1.1333306819354143 2.548919976571222 3.6583033165692944
199 1 0.9997000609792014 1.8545549017418137 3.658303316569293
200 1 0.4651775771543535 2.3174649516280867 3.6583033165692935
201 1 1.6678531657602624 2.086009926684949 3.6583033165692935
202 1 1.9351144076726874 2.3946166266091304 3.0809530473796727
203 1 1.8014837867164744 1.7002515517797223 3.0809530473796714
204 1 1.2669613028916262 2.1631616016659954 3.080953047379672
205 1 2.4696368914975357 1.9317065767228578 3.080953047379672
206 2 -1.0047592533639795 3.320436726381678 4.813003854948538
207 1 -0.8711286324077675 2.9346783514764514 4.235653585758916
208 1 -1.4056511162326157 3.397588401362724 4.235653585758917
209 1 -0.2029755276267066 3.1661333764195865 4.235653585758917
210 1 -0.06934490667049467 2.7803750015143596 3.6583033165692944
211 1 -0.6038673904953428 3.243285051400633 3.6583033165692953
212 1 0.5988081981105665 3.011830026457495 3.658303316569295
213 1 0.8660694400229915 3.3204367263816765 3.0809530473796736
214 1 0.7324388190667782 2.6260716515522686 3.0809530473796727
215 1 0.19791633524193006 3.0889817014385414 3.0809530473796736
216 1 1.4005919238478395 2.8575266764954037 3.080953047379673
217 2 0.06428571428571347 0.23436972713986057 5.390354124138156
218 2 0.33154695619813845 0.5429764270640425 4.813003854948534
219 1 1.1333306819354112 0.3886730771019511 4.2356535857589135
220 1 1.9351144076726843 0.23436972713985968 3.6583033165692913
221 2 -0.2029755276267097 1.0058864769503155 4.813003854948535
222 1 0.06428571428571547 1.3144931768744972 4.235653585758914
223 1 -0.069344906670498 0.6201281020450888 4.2356535857589135
224 1 0.5988081981105634 0.8515831269882241 4.2356535857589135
225 1 0.8660694400229882 1.1601898269124058 3.6583033165692926
226 1 0.7324388190667749 0.46582475208299745 3.6583033165692918
227 1 0.19791633524192673 0.9287348019692705 3.658303316569292
228 1 1.4005919238478364 0.6972797770261328 3.6583033165692918
229 1 1.667853165760261 1.0058864769503144 3.080953047379671
230 1 1.5342225448040478 0.31152140212090607 3.08095304737967
231 1 0.9997000609791998 0.7744314520071791 3.0809530473796705
232 1 2.2023756495851092 0.5429764270640414 3.08095304737967
233 1 -1.0047592533639809 2.240313276647043 4.235653585758915
234 1 -0.47023676953913307 1.7774032267607704 4.235653585758915
235 1 -0.20297552762670792 2.086009926684952 3.6583033165692935
236 1 -0.33660614858292115 1.3916448518555435 3.6583033165692926
237 1 -0.8711286324077695 1.8545549017418168 3.6583033165692935
238 1 0.33154695619814023 1.623099876798679 3.658303316569293
239 1 0.598808198110565 1.9317065767228607 3.080953047379672
240 1 0.4651775771543517 1.2373415018934522 3.080953047379671
241 1 -0.06934490667049623 1.7002515517797254 3.080953047379672
242 1 1.133330681935413 1.4687965268365877 3.0809530473796714
243 1 -1.2720204952764038 3.011830026457498 3.6583033165692953
244 1 -0.737498011451556 2.548919976571225 3.6583033165692944
245 1 -0.47023676953913085 2.8575266764954064 3.0809530473796736
246 1 -0.6038673904953443 2.1631616016659985 3.0809530473796722
247 1 -1.1383898743201926 2.6260716515522713 3.0809530473796727
248 1 0.06428571428571703 2.3946166266091335 3.0809530473796727
249 1 -1.004759253363979 3.3204367263816796 3.080953047379674
250 1 0.0642857142857137 0.23436972713986234 3.658303316569291
251 1 0.33154695619813856 0.542976427064044 3.08095304737967
252 1 -0.20297552762670948 1.005886476950317 3.080953047379671
253 2 3.6029675734329443 0.7773461542038982 10.203357979086695
254 2 2.934814468651884 1.0088011791470355 10.203357979086695
255 2 2.4002919848270343 0.5458911292607636 10.203357979086693
256 2 2.2666613638708233 1.2402562040901723 10.203357979086693
257 1 2.801183847695671 0.623042804241809 9.626007709897072
258 2 2.6675532267394617 2.397531328805852 10.203357979086697
259 2 2.1330307429146123 1.9346212789195811 10.203357979086697
260 2 1.9994001219584012 2.6289863537489895 10.203357979086697
261 2 2.8011838476956727 1.7031662539764438 10.203357979086697
262 1 2.66755322673946 1.3174078790712178 9.626007709897074
263 1 2.533922605783249 2.011772953900626 9.626007709897074
264 1 3.3357063315205204 1.0859528541280805 9.626007709897074
265 1 3.2020757105643076 0.700194479222854 9.048657440707451
266 1 3.0684450896080966 1.3945595540522628 9.048657440707451
267 1 3.6029675734329447 0.7773461542038995 8.471307171517829
268 2 1.8657695010021902 3.3233514285783987 10.203357979086697
269 1 2.400291984827038 2.706138028730035 9.626007709897074
270 2 1.5985082590897628 1.4717112290333099 10.203357979086695
271 2 1.0639857752649136 1.0088011791470382 10.203357979086695
272 2 0.9303551543087025 1.7031662539764474 10.203357979086695
273 2 1.7321388800459738 0.7773461542039006 10.203357979086695
274 1 2.1330307429146105 0.8544978291849465 9.626007709897074
275 1 1.46487763813355 1.0859528541280836 9.626007709897072
276 1 1.9994001219583977 0.46873945427972025 9.048657440707451
277 2 1.3312470171773407 2.8604413786921272 10.203357979086697
278 2 0.7967245333524915 2.3975313288058557 10.203357979086697
279 2 0.6630939123962796 3.0918964036352636 10.203357979086697
280 2 1.4648776381335518 2.1660763038627184 10.203357979086697
281 1 1.8657695010021884 2.2432279788437635 9.626007709897074
282 1 1.331247017177339 1.7803179289574924 9.626007709897074
283 1 1.197616396221128 2.4746830037869008 9.626007709897074
284 1 1.9994001219583994 1.548862904014355 9.626007709897074
285 1 2.400291984827036 1.6260145789954004 9.048657440707451
286 1 1.8657695010021866 1.163104529109129 9.048657440707451
287 1 1.7321388800459756 1.8574696039385374 9.048657440707451
288 1 2.533922605783247 0.9316495041659916 9.048657440707451
289 1 2.934814468651884 1.0088011791470366 8.471307171517829
290 1 2.4002919848270343 0.5458911292607653 8.471307171517829
291 1 2.2666613638708233 1.2402562040901741 8.47130717151783
292 2 1.1976163962211288 3.554806453521535 10.203357979086697
293 1 1.5985082590897663 3.631958128502581 9.626007709897076
294 1 1.063985775264917 3.16904807861631 9.626007709897076
295 1 1.7321388800459774 2.9375930536731722 9.626007709897076
296 1 2.1330307429146136 3.0147447286542173 9.048657440707455
297 1 1.5985082590897646 2.5518346787679462 9.048657440707453
298 1 1.464877638133553 3.246199753597355 9.048657440707455
299 1 2.266661363870825 2.320379653824809 9.048657440707453
300 1 2.6675532267394617 2.3975313288058544 8.471307171517832
301 1 2.1330307429146123 1.9346212789195834 8.47130717151783
302 1 1.9994001219584012 2.6289863537489913 8.471307171517832
303 1 2.8011838476956727 1.7031662539764458 8.47130717151783
304 1 1.8657695010021897 3.3233514285784 8.471307171517832
305 2 0.5294632914400641 0.5458911292607667 10.203357979086693
306 2 0.262202049527642 1.9346212789195847 10.203357979086697
307 2 -0.2723204342972074 1.4717112290333128 10.203357979086695
308 2 -0.40595105525341935 2.166076303862721 10.203357979086697
309 2 0.39583267048385307 1.2402562040901755 10.203357979086697
310 1 0.7967245333524897 1.317407879071221 9.626007709897074
311 1 0.2622020495276402 0.8544978291849491 9.626007709897074
312 1 0.12857142857142917 1.5488629040143582 9.626007709897074
313 1 0.9303551543087007 0.6230428042418117 9.626007709897074
314 1 1.3312470171773372 0.7001944792228576 9.048657440707451
315 1 0.6630939123962769 0.9316495041659946 9.048657440707451
316 2 -0.005059192384780975 3.323351428578401 10.203357979086697
317 2 -0.5395816762096304 2.8604413786921294 10.203357979086697
318 2 -0.6732122971658414 3.5548064535215382 10.203357979086697
319 2 0.12857142857143006 2.628986353748992 10.203357979086697
320 1 0.5294632914400677 2.706138028730038 9.626007709897074
321 1 -0.005059192384781863 2.2432279788437666 9.626007709897074
322 1 -0.13868981334099378 2.9375930536731745 9.626007709897074
323 1 0.6630939123962787 2.0117729539006297 9.626007709897074
324 1 1.0639857752649153 2.0889246288816747 9.048657440707451
325 1 0.5294632914400659 1.6260145789954032 9.048657440707451
326 1 0.39583267048385484 2.3203796538248116 9.048657440707451
327 1 1.1976163962211261 1.394559554052266 9.048657440707451
328 1 1.5985082590897628 1.4717112290333114 8.47130717151783
329 1 1.0639857752649136 1.00880117914704 8.471307171517829
330 1 0.9303551543087025 1.7031662539764483 8.471307171517829
331 1 1.7321388800459738 0.7773461542039026 8.471307171517829
332 1 -0.27232043429720476 3.6319581285025837 9.626007709897074
333 1 0.39583267048385573 3.4005031035594464 9.626007709897074
334 1 0.7967245333524933 3.4776547785404923 9.048657440707455
335 1 0.26220204952764375 3.014744728654221 9.048657440707453
336 1 0.9303551543087043 2.7832897037110835 9.048657440707455
337 1 1.3312470171773403 2.8604413786921286 8.471307171517832
338 1 0.7967245333524915 2.397531328805857 8.471307171517832
339 1 0.66309391239628 3.091896403635266 8.471307171517832
340 1 1.4648776381335518 2.16607630386272 8.471307171517832
341 1 1.1976163962211293 3.5548064535215373 8.471307171517832
342 1 -0.5395816762096313 1.7803179289574957 9.626007709897074
343 1 -0.0050591923847836395 1.163104529109132 9.048657440707451
344 1 0.1285714285714274 0.4687394542797227 9.048657440707451
345 1 0.5294632914400641 0.5458911292607687 8.471307171517829
346 2 -1.207734780990691 3.0918964036352667 10.203357979086697
347 1 -0.8068429181220542 3.1690480786163118 9.626007709897076
348 1 -1.474996022903115 3.4005031035594495 9.626007709897076
349 1 -0.6732122971658432 2.474683003786903 9.626007709897074
350 1 -0.27232043429720565 2.551834678767949 9.048657440707453
351 1 -0.8068429181220551 2.0889246288816783 9.048657440707451
352 1 -0.9404735390782671 2.7832897037110857 9.048657440707453
353 1 -0.13868981334099467 1.8574696039385408 9.048657440707453
354 1 0.262202049527642 1.9346212789195858 8.47130717151783
355 1 -0.2723204342972074 1.4717112290333145 8.47130717151783
356 1 -0.40595105525341846 2.1660763038627233 8.47130717151783
357 1 0.39583267048385307 1.240256204090177 8.47130717151783
358 1 -1.0741041600344783 3.477654778540495 9.048657440707453
359 1 -0.40595105525341757 3.2461997535973577 9.048657440707453
360 1 -0.005059192384780087 3.3233514285784036 8.471307171517832
361 1 -0.5395816762096295 2.860441378692132 8.471307171517832
362 1 -0.6732122971658414 3.55480645352154 8.471307171517832
363 1 0.12857142857143095 2.628986353748995 8.471307171517832
364 1 -1.207734780990691 3.0918964036352685 8.47130717151783
365 1 2.6726124191242437 0.15430334996208422 2.309401076758487
366 1 2.5389817981680327 0.8486684247914931 2.309401076758488
367 1 2.4053511772118217 1.5430334996209019 2.3094010767584883
368 1 3.207134902949093 0.6172133998483558 2.3094010767584874
369 1 3.0735042819928804 0.23145502494312958 1.7320508075688652
370 1 2.9398736610366694 0.9258200997725383 1.7320508075688659
371 1 3.474396144861517 0.30860669992417494 1.1547005383792437
372 1 2.27172055625561 2.2373985744503107 2.309401076758489
373 1 2.0044593143431833 0.38575837490522147 2.309401076758487
374 1 1.3363062095621225 0.6172133998483587 2.309401076758487
375 1 1.8708286933869704 -4.718447854656915e-15 1.7320508075688648
376 1 1.7371980724307607 1.7744885245640392 2.3094010767584887
377 1 1.2026755886059113 1.3115784746777677 2.309401076758488
378 1 1.0690449676497003 2.0059435495071765 2.3094010767584887
379 1 1.870828693386972 1.0801234497346304 2.309401076758488
380 1 2.271720556255609 1.1572751247156756 1.7320508075688663
381 1 1.7371980724307594 0.6943650748294041 1.7320508075688654
382 1 1.6035674514745482 1.3887301496588127 1.7320508075688663
383 1 2.40535117721182 0.46291004988626683 1.7320508075688654
384 1 2.8062430400804566 0.5400617248673122 1.154700538379244
385 1 2.271720556255607 0.07715167498104064 1.1547005383792432
386 1 2.138089935299396 0.7715167498104494 1.154700538379244
387 2 2.6726124191242437 0.154303349962086 0.577350269189622
388 1 1.4699368305183387 3.1632186742228567 2.3094010767584905
389 1 0.9354143466934892 2.7003086243365853 2.3094010767584896
390 1 1.6035674514745497 2.468853599393448 2.3094010767584896
391 1 2.0044593143431864 2.546005274374493 1.7320508075688679
392 1 1.469936830518337 2.083095224488222 1.7320508075688672
393 1 1.3363062095621259 2.7774602993176307 1.7320508075688679
394 1 2.1380899352993974 1.8516401995450844 1.732050807568867
395 1 2.5389817981680345 1.9287918745261297 1.1547005383792455
396 1 2.004459314343185 1.4658818246398582 1.1547005383792448
397 1 1.8708286933869736 2.160246899469267 1.1547005383792455
398 1 2.6726124191242455 1.2344267996967209 1.1547005383792446
399 2 2.5389817981680327 0.8486684247914948 0.5773502691896226
400 2 2.4053511772118217 1.5430334996209036 0.5773502691896235
401 2 3.207134902949093 0.6172133998483575 0.5773502691896226
402 2 3.0735042819928804 0.2314550249431313 2.220446049250313e-16
403 2 2.9398736610366694 0.9258200997725401 1.1102230246251565e-15
404 1 1.7371980724307625 2.8546119742986757 1.1547005383792464
405 2 2.2717205562556106 2.2373985744503124 0.5773502691896242
406 1 0.6681531047810619 0.848668424791496 2.309401076758488
407 1 0.1336306209562126 0.38575837490522447 2.309401076758487
408 1 1.3322676295501878e-15 1.080123449734633 2.309401076758488
409 1 0.8017837257372731 0.15430334996208717 2.309401076758487
410 1 1.20267558860591 0.23145502494313253 1.732050807568865
411 1 0.5345224838248492 0.46291004988626977 1.7320508075688652
412 1 0.40089186286863976 2.2373985744503138 2.3094010767584887
413 1 -0.1336306209562097 1.7744885245640418 2.3094010767584887
414 1 -0.26726124191242095 2.4688535993934506 2.3094010767584896
415 1 0.5345224838248508 1.5430334996209047 2.3094010767584883
416 1 0.9354143466934876 1.6201851746019502 1.7320508075688665
417 1 0.4008918628686381 1.1572751247156785 1.732050807568866
418 1 0.26726124191242695 1.8516401995450873 1.7320508075688668
419 1 1.0690449676496987 0.9258200997725413 1.7320508075688659
420 1 1.4699368305183353 1.0029717747535867 1.1547005383792441
421 1 0.935414346693486 0.5400617248673152 1.1547005383792437
422 1 0.8017837257372749 1.234426799696724 1.1547005383792446
423 1 1.6035674514745466 0.3086066999241779 1.1547005383792435
424 2 2.0044593143431833 0.38575837490522324 0.5773502691896222
425 2 1.3363062095621228 0.6172133998483604 0.5773502691896224
426 2 1.8708286933869707 -2.942091015256665e-15 2.220446049250313e-16
427 1 -0.4008918628686322 3.1632186742228594 2.3094010767584896
428 1 0.2672612419124285 2.9317636492797226 2.3094010767584896
429 1 0.6681531047810653 3.0089153242607676 1.732050807568868
430 1 0.13363062095621592 2.546005274374496 1.7320508075688676
431 1 0.8017837257372764 2.314550249431359 1.7320508075688672
432 1 1.202675588605913 2.3917019244124043 1.154700538379246
433 1 0.6681531047810636 1.9287918745261328 1.1547005383792455
434 1 0.5345224838248525 2.6231569493555416 1.1547005383792461
435 1 1.3363062095621243 1.6973368495829955 1.154700538379245
436 2 1.737198072430761 1.7744885245640407 0.5773502691896237
437 2 1.2026755886059115 1.3115784746777694 0.5773502691896233
438 2 1.0690449676497003 2.005943549507178 0.5773502691896241
439 2 1.8708286933869722 1.0801234497346321 0.577350269189623
440 2 2.271720556255609 1.1572751247156774 1.5543122344752192e-15
441 2 1.7371980724307594 0.6943650748294059 8.881784197001252e-16
442 2 1.6035674514745484 1.3887301496588145 1.7763568394002505e-15
443 2 2.40535117721182 0.4629100498862686 6.661338147750939e-16
444 1 1.069044967649702 3.086066999241813 1.1547005383792466
445 2 1.4699368305183387 3.1632186742228585 0.5773502691896253
446 2 0.9354143466934892 2.7003086243365866 0.5773502691896248
447 2 1.6035674514745497 2.4688535993934497 0.5773502691896245
448 2 2.004459314343187 2.546005274374495 2.886579864025407e-15
449 2 1.4699368305183371 2.0830952244882233 2.4424906541753444e-15
450 2 1.3363062095621259 2.777460299317632 3.219646771412954e-15
451 2 2.138089935299398 1.8516401995450862 2.220446049250313e-15
452 1 -0.6681531047810592 1.3115784746777703 2.309401076758488
453 1 -0.13363062095621137 0.694365074829407 1.7320508075688654
454 1 -2.220446049250313e-16 -1.7763568394002505e-15 1.7320508075688645
455 1 0.40089186286863654 0.07715167498104358 1.1547005383792432
456 1 -0.9354143466934817 2.7003086243365875 2.309401076758489
457 1 -1.6035674514745422 2.931763649279725 2.3094010767584896
458 1 -0.8017837257372704 2.0059435495071796 2.3094010767584887
459 1 -0.40089186286863354 2.0830952244882246 1.7320508075688668
460 1 -0.935414346693483 1.620185174601953 1.7320508075688663
461 1 -1.0690449676496943 2.314550249431362 1.7320508075688672
462 1 -0.2672612419124225 1.3887301496588158 1.7320508075688663
463 1 0.13363062095621425 1.4658818246398613 1.1547005383792446
464 1 -0.4008918628686352 1.0029717747535898 1.1547005383792441
465 1 -0.5345224838248464 1.6973368495829986 1.1547005383792448
466 1 0.2672612419124254 0.7715167498104524 1.154700538379244
467 2 0.6681531047810622 0.8486684247914977 0.5773502691896226
468 2 0.1336306209562127 0.3857583749052262 0.5773502691896221
469 2 1.5543122344752192e-15 1.0801234497346348 0.5773502691896228
470 2 0.8017837257372733 0.15430334996208894 0.5773502691896218
471 2 1.20267558860591 0.2314550249431343 3.3306690738754696e-16
472 2 0.5345224838248495 0.46291004988627155 5.551115123125783e-16
473 1 -1.2026755886059055 3.0089153242607707 1.7320508075688676
474 1 -0.5345224838248448 2.7774602993176334 1.7320508075688676
475 1 -0.13363062095620803 2.8546119742986784 1.1547005383792464
476 1 -0.6681531047810574 2.3917019244124074 1.1547005383792457