ITEM: TIMESTEP
100000
ITEM: NUMBER OF ATOMS
144
ITEM: BOX BOUNDS xy xz yz pp pp pp
0.0000000000000000e+00 3.7201625468519524e+01 4.9602167291359365e+00
0.0000000000000000e+00 4.8802079873710284e+01 2.2320975281111714e+01
0.0000000000000000e+00 2.3734580741297954e+01 3.7710698084230671e+01
ITEM: ATOMS id type x y z c_peatom
70 2 0 0 0 -3.37957
82 2 1.65341 3.69713 0 -3.36587
69 2 4.96022 0 0 -3.37957
81 2 6.61362 3.69713 0 -3.36587
80 2 4.13351 4.80627 0.905608 -3.3654
86 1 4.11228 7.01274 2.79435 -3.36014
88 1 6.58672 8.15287 3.72214 -3.27134
91 2 9.09373 4.80627 0.905608 -3.3654
92 1 9.07249 7.01274 2.79435 -3.36014
93 1 6.59093 5.92265 1.8393 -3.38145
94 2 5.78692 8.50339 0.905608 -3.37177
95 2 8.26703 7.39425 0 -3.36587
76 1 11.5511 5.92265 1.8393 -3.38145
89 1 11.5469 8.15287 3.72214 -3.27134
96 2 13.2272 7.39425 0 -3.36587
104 2 10.7471 8.50339 0.905608 -3.37177
68 2 7.44033 12.2005 0.905608 -3.36541
98 1 9.06376 9.31468 4.70982 -3.22887
100 1 5.78334 10.7128 2.7519 -3.34794
102 1 8.29266 11.8847 3.58246 -3.24398
106 1 8.27318 9.58851 1.86085 -3.38827
77 2 12.4005 12.2005 0.905608 -3.36541
90 1 13.2334 9.58851 1.86085 -3.38827
103 1 13.2529 11.8847 3.58246 -3.24398
105 1 10.7436 10.7128 2.7519 -3.34794
87 1 14.024 9.31468 4.70982 -3.22887
72 1 7.47309 14.4172 2.71723 -3.27613
79 1 9.95695 13.3117 1.86415 -3.30793
74 1 9.94504 15.4625 3.70851 -3.32015
78 1 12.4333 14.4172 2.71723 -3.27613
84 1 12.3853 16.5342 4.53882 -3.23635
67 1 14.9172 13.3117 1.86415 -3.30793
73 1 17.3456 16.5342 4.53882 -3.23635
75 1 14.9053 15.4625 3.70851 -3.32015
2 1 9.16453 12.0793 6.21104 -3.16848
99 1 6.63753 10.699 5.4282 -3.13008
83 1 11.5977 10.699 5.4282 -3.13008
1 1 14.1247 12.0793 6.21104 -3.16848
109 1 8.93247 14.9265 6.35921 -3.18689
108 1 11.5283 13.5965 5.30483 -3.18432
5 1 12.1843 17.1627 7.24516 -3.19639
6 1 13.6917 15.473 9.11838 -3.31708
9 1 11.2596 14.46 8.04554 -3.22387
97 1 13.8927 14.9265 6.35921 -3.18689
85 1 9.88209 17.6855 5.56963 -3.17061
101 1 16.4886 13.5965 5.30483 -3.18432
3 1 16.2198 14.46 8.04554 -3.22387
14 1 17.1445 17.1627 7.24516 -3.19639
71 1 14.8423 17.6855 5.56963 -3.17061
4 1 18.6519 15.473 9.11838 -3.31708
17 1 12.0525 19.2602 9.137 -3.2854
22 1 12.6953 21.8139 8.16869 -3.2194
15 1 14.5668 18.0617 8.342 -3.17305
16 1 17.0127 19.2602 9.137 -3.2854
35 1 15.1292 20.5891 7.35041 -3.119
44 1 17.6555 21.8139 8.16869 -3.2194
20 1 19.527 18.0617 8.342 -3.17305
21 1 20.0895 20.5891 7.35041 -3.119
36 1 15.2256 22.9779 9.0228 -3.31167
41 1 20.1858 22.9779 9.0228 -3.31167
7 1 11.2062 16.6098 10.0106 -3.39041
13 1 16.1664 16.6098 10.0106 -3.39041
8 2 13.6406 17.7462 10.9617 -3.3746
10 2 18.6008 17.7462 10.9617 -3.3746
31 2 16.9474 21.4433 10.9617 -3.37622
34 1 14.4817 20.3708 10.0605 -3.36569
18 1 19.4419 20.3708 10.0605 -3.36569
19 2 21.9076 21.4433 10.9617 -3.37622
26 2 21.0809 18.8553 11.8673 -3.38304
32 2 14.4673 22.5525 11.8673 -3.37253
33 2 16.9474 23.6616 12.7729 -3.35369
42 1 17.7436 24.0199 10.0085 -3.30181
52 1 14.4978 24.7822 13.7261 -3.30181
53 2 15.294 25.1405 10.9617 -3.35369
60 2 17.7741 26.2496 11.8673 -3.37253
37 2 21.9076 23.6616 12.7729 -3.35369
38 1 19.4581 24.7822 13.7261 -3.30181
40 2 19.4275 22.5525 11.8673 -3.37253
43 2 20.2542 25.1405 10.9617 -3.35369
45 2 22.7343 26.2496 11.8673 -3.37253
46 1 22.7038 24.0199 10.0085 -3.30181
23 2 18.6008 31.0559 12.7729 -3.3746
54 2 15.294 27.3587 12.7729 -3.37622
58 1 17.7597 28.4313 13.6741 -3.36569
11 2 21.0809 29.9467 11.8673 -3.38304
57 2 20.2542 27.3587 12.7729 -3.37622
62 1 22.72 28.4313 13.6741 -3.36569
12 2 23.561 31.0559 12.7729 -3.3746
30 1 21.0352 32.1922 13.724 -3.39041
24 1 25.9954 32.1922 13.724 -3.39041
49 1 17.0158 25.8242 14.7118 -3.31167
39 1 21.976 25.8242 14.7118 -3.31167
51 1 17.1122 28.213 16.3842 -3.119
66 1 17.6746 30.7404 15.3926 -3.17305
55 1 22.0724 28.213 16.3842 -3.119
56 1 19.5461 26.9882 15.5659 -3.2194
59 1 20.1889 29.5419 14.5976 -3.2854
61 1 22.6348 30.7404 15.3926 -3.17305
50 1 24.5063 26.9882 15.5659 -3.2194
63 1 25.1491 29.5419 14.5976 -3.2854
25 1 18.5497 33.329 14.6162 -3.31708
28 1 20.9819 34.342 15.689 -3.22387
65 1 20.0571 31.6394 16.4894 -3.19639
107 1 22.3593 31.1165 18.165 -3.17061
128 1 20.7131 35.2055 18.4297 -3.18432
27 1 23.5099 33.329 14.6162 -3.31708
48 1 25.9421 34.342 15.689 -3.22387
64 1 25.0173 31.6394 16.4894 -3.19639
115 1 23.3089 33.8756 17.3754 -3.18689
117 1 27.3195 31.1165 18.165 -3.17061
123 1 25.6733 35.2055 18.4297 -3.18432
129 1 28.2692 33.8756 17.3754 -3.18689
29 1 23.0769 36.7228 17.5235 -3.16848
127 1 25.6039 38.1031 18.3064 -3.13008
47 1 28.0371 36.7228 17.5235 -3.16848
140 1 30.5641 38.1031 18.3064 -3.13008
114 1 22.2964 33.3396 20.0261 -3.32015
116 1 19.8561 32.2679 19.1958 -3.23635
110 1 22.2845 35.4904 21.8704 -3.30793
111 1 24.8163 32.2679 19.1958 -3.23635
112 1 24.7683 34.3849 21.0174 -3.27613
113 1 27.2566 33.3396 20.0261 -3.32015
122 1 27.2447 35.4904 21.8704 -3.30793
120 1 29.7285 34.3849 21.0174 -3.27613
139 1 23.1777 39.4874 19.0248 -3.22887
118 2 24.8011 36.6016 22.829 -3.36541
119 1 23.9682 39.2136 21.8737 -3.38827
124 1 26.4581 38.0893 20.9827 -3.34794
126 1 23.9487 36.9173 20.1521 -3.24398
121 2 29.7613 36.6016 22.829 -3.36541
125 1 28.909 36.9173 20.1521 -3.24398
132 1 31.4183 38.0893 20.9827 -3.34794
134 1 28.9284 39.2136 21.8737 -3.38827
135 1 28.1379 39.4874 19.0248 -3.22887
130 2 26.4545 40.2987 22.829 -3.37177
131 1 25.6505 42.8794 21.8953 -3.38145
138 1 25.6547 40.6492 20.0124 -3.27134
133 2 31.4147 40.2987 22.829 -3.37177
136 1 28.1291 41.7893 20.9402 -3.36014
137 1 30.6149 40.6492 20.0124 -3.27134
141 2 28.1079 43.9958 22.829 -3.3654
144 1 30.6107 42.8794 21.8953 -3.38145
142 1 33.0893 41.7893 20.9402 -3.36014
143 2 33.0681 43.9958 22.829 -3.3654
