#Lammps coordinate file for CSL - Axis: [1 1 1]  Angle: (1, 3) -> 59.99999999999999  Plane indices: [0 1 1]  z-position: [5.1836451853244885 15.550935555973464]  Repeats: 1 1 (3, 3) (black, white)  Fixed: 2.228  Boundary equiv: True
144 atoms

2 atom types

0.0 9.920433458271871 xlo xhi
0.0 11.091381789479609 ylo yhi
0.0 20.734580741297954 zlo zhi
4.9602167291359365 20.460894007685738 30.77858446580592 xy xz yz

Atoms

1 1 12.710555368410837 9.843601338163154 5.839252716211904
2 1 17.67077209754677 9.843601338163154 5.839252716211904
3 1 15.190663732978804 10.952739517111114 6.74486024709932
4 1 17.67077209754677 12.061877696059076 7.650467777986734
5 1 20.97758325030406 13.540728601323023 5.839252716211904
6 1 12.710555368410835 12.061877696059076 7.650467777986734
7 1 10.230447003842869 13.171015875007038 8.55607530887415
8 2 12.710555368410837 14.280154053954998 9.461682839761563
9 1 10.230447003842869 10.952739517111116 6.744860247099319
10 2 17.67077209754677 14.280154053954998 9.461682839761563
11 2 15.190663732978805 15.389292232902958 10.367290370648979
12 2 17.67077209754677 16.498430411850922 11.272897901536393
13 1 15.190663732978804 13.171015875007038 8.55607530887415
14 1 16.017366521168125 13.540728601323023 5.839252716211904
15 1 13.53725815660016 14.649866780270985 6.744860247099319
16 1 16.017366521168125 15.759004959218947 7.650467777986734
17 1 20.97758325030406 15.759004959218945 7.650467777986734
18 1 18.497474885736096 16.868143138166907 8.55607530887415
19 2 20.977583250304065 17.97728131711487 9.461682839761563
20 1 18.497474885736093 14.649866780270985 6.74486024709932
21 1 19.32417767392542 17.237855864482896 5.839252716211903
22 1 21.804286038493387 18.346994043430858 6.744860247099318
23 2 12.710555368410837 16.498430411850922 11.272897901536393
24 1 10.230447003842869 17.607568590798884 12.178505432423808
25 1 12.710555368410837 18.716706769746846 13.084112963311222
26 2 10.230447003842869 15.38929223290296 10.367290370648979
27 1 17.670772097546774 18.716706769746846 13.084112963311222
28 1 15.190663732978805 19.825844948694805 13.989720494198638
29 1 17.670772097546774 20.934983127642766 14.895328025086053
30 1 15.190663732978805 17.607568590798884 12.178505432423808
31 2 16.017366521168128 17.97728131711487 9.461682839761563
32 2 13.53725815660016 19.08641949606283 10.367290370648979
33 2 16.017366521168128 20.195557675010793 11.272897901536393
34 1 13.53725815660016 16.86814313816691 8.55607530887415
35 1 14.363960944789481 17.237855864482896 5.839252716211903
36 1 14.363960944789481 19.45613222237882 7.650467777986734
37 2 20.977583250304065 20.195557675010793 11.272897901536393
38 1 18.497474885736096 21.304695853958755 12.178505432423808
39 1 20.977583250304065 22.413834032906717 13.084112963311224
40 2 18.497474885736096 19.08641949606283 10.367290370648979
41 1 19.32417767392542 19.456132222378816 7.650467777986734
42 1 16.84406930935745 20.56527040132678 8.55607530887415
43 2 19.32417767392542 21.67440858027474 9.461682839761563
44 1 16.84406930935745 18.346994043430858 6.744860247099319
45 2 21.804286038493387 22.783546759222702 10.367290370648977
46 1 21.804286038493387 20.565270401326778 8.55607530887415
47 1 12.710555368410837 20.93498312764277 14.895328025086052
48 1 10.23044700384287 19.825844948694808 13.989720494198638
49 1 16.017366521168128 22.413834032906717 13.084112963311222
50 1 13.537258156600162 23.522972211854675 13.989720494198638
51 1 16.017366521168128 24.632110390802637 14.895328025086053
52 1 13.53725815660016 21.304695853958755 12.178505432423808
53 2 14.363960944789483 21.67440858027474 9.461682839761563
54 2 14.363960944789483 23.892684938170664 11.272897901536393
55 1 20.977583250304065 24.632110390802637 14.895328025086052
56 1 18.497474885736096 23.522972211854675 13.98972049419864
57 2 19.32417767392542 23.892684938170664 11.272897901536393
58 1 16.84406930935745 25.001823117118626 12.178505432423808
59 1 19.32417767392542 26.110961296066588 13.084112963311224
60 2 16.84406930935745 22.783546759222702 10.367290370648979
61 1 21.804286038493384 27.220099475014546 13.989720494198636
62 1 21.80428603849338 25.001823117118622 12.178505432423808
63 1 14.363960944789483 26.110961296066588 13.08411296331122
64 1 14.363960944789483 28.329237653962508 14.895328025086052
65 1 19.32417767392542 28.329237653962508 14.89532802508605
66 1 16.84406930935745 27.220099475014546 13.989720494198638
67 1 0.0 2.2182763578959226 1.811215061774829
68 2 2.4801083645679682 1.109138178947961 0.9056075308874146
69 2 4.960216729135936 -4.440892098500626e-16 -2.220446049250313e-16
70 2 0.0 0.0 0.0
71 1 0.0 6.654829073687768 5.1836451853244885
72 1 2.4801083645679682 3.327414536843884 2.7168225926622442
73 1 2.4801083645679682 5.545690894739806 4.528037654437074
74 1 4.960216729135936 4.436552715791845 3.6224301235496585
75 1 0.0 4.436552715791845 3.6224301235496585
76 1 1.6534055763786455 5.915403621055794 1.811215061774829
77 2 7.440325093703903 1.109138178947961 0.9056075308874144
78 1 7.440325093703903 3.3274145368438837 2.7168225926622442
79 1 4.960216729135936 2.218276357895922 1.811215061774829
80 2 4.133513940946613 4.806265442107832 0.9056075308874144
81 2 6.61362230551458 3.6971272631598704 -6.106226635438361e-16
82 2 1.6534055763786455 3.697127263159871 -3.885780586188048e-16
83 1 1.6534055763786455 10.351956336847639 5.1836451853244885
84 1 7.440325093703903 5.545690894739806 4.528037654437074
85 1 4.960216729135936 6.654829073687768 5.1836451853244885
86 1 4.133513940946613 7.024541800003755 2.716822592662244
87 1 4.133513940946613 9.242818157899677 4.528037654437074
88 1 6.61362230551458 8.133679978951715 3.6224301235496585
89 1 1.6534055763786455 8.133679978951717 3.6224301235496585
90 1 3.306811152757291 9.612530884215664 1.8112150617748286
91 2 9.093730670082548 4.806265442107832 0.9056075308874142
92 1 9.093730670082547 7.024541800003755 2.716822592662244
93 1 6.61362230551458 5.915403621055793 1.8112150617748286
94 2 5.7869195173252574 8.503392705267704 0.905607530887414
95 2 8.267027881893226 7.394254526319742 -9.992007221626409e-16
96 2 3.306811152757291 7.394254526319742 -7.771561172376096e-16
97 1 3.306811152757291 14.04908360000751 5.183645185324488
98 1 9.093730670082547 9.242818157899677 4.528037654437074
99 1 6.613622305514581 10.351956336847639 5.1836451853244885
100 1 5.786919517325258 10.721669063163626 2.7168225926622434
101 1 5.786919517325258 12.939945421059548 4.528037654437073
102 1 8.267027881893226 11.830807242111586 3.6224301235496585
103 1 3.306811152757291 11.830807242111588 3.6224301235496585
104 2 10.747136246461192 8.503392705267704 0.9056075308874137
105 1 10.747136246461192 10.721669063163626 2.7168225926622434
106 1 8.267027881893226 9.612530884215664 1.8112150617748282
107 1 20.460894007685738 24.12375539211816 15.550935555973467
108 1 10.747136246461192 12.939945421059548 4.528037654437073
109 1 8.267027881893226 14.04908360000751 5.183645185324488
110 1 20.460894007685738 28.560308107910004 18.923365679523123
111 1 22.941002372253703 25.23289357106612 16.20654308686088
112 1 22.941002372253706 27.451169928962045 18.01775814863571
113 1 25.42111073682167 26.342031750014083 17.112150617748295
114 1 20.460894007685738 26.342031750014083 17.112150617748295
115 1 22.114299584064383 27.82088265527803 15.550935555973464
116 1 27.901219101389636 25.23289357106612 16.20654308686088
117 1 25.42111073682167 24.12375539211816 15.550935555973464
118 2 22.941002372253706 29.669446286857966 19.82897321041054
119 1 22.114299584064383 32.257435371069874 18.923365679523123
120 1 27.901219101389636 27.45116992896204 18.017758148635707
121 2 27.901219101389643 29.669446286857966 19.82897321041054
122 1 25.421110736821674 28.560308107910004 18.923365679523126
123 1 24.594407948632348 28.930020834225992 16.20654308686088
124 1 24.59440794863235 31.148297192121916 18.01775814863571
125 1 27.07451631320032 30.039159013173954 17.112150617748295
126 1 22.114299584064383 30.039159013173954 17.112150617748295
127 1 23.76770516044303 31.5180099184379 15.550935555973464
128 1 29.554624677768288 28.930020834225992 16.20654308686088
129 1 27.07451631320032 27.82088265527803 15.550935555973464
130 2 24.59440794863235 33.36657355001783 19.82897321041054
131 1 23.76770516044303 35.95456263422974 18.923365679523123
132 1 29.554624677768288 31.148297192121913 18.017758148635707
133 2 29.554624677768288 33.36657355001783 19.82897321041054
134 1 27.07451631320032 32.257435371069874 18.923365679523126
135 1 26.247813525010997 32.62714809738586 16.20654308686088
136 1 26.247813525010997 34.84542445528178 18.01775814863571
137 1 28.727921889578965 33.73628627633382 17.112150617748295
138 1 23.76770516044303 33.73628627633382 17.112150617748295
139 1 31.208030254146934 32.62714809738586 16.20654308686088
140 1 28.727921889578965 31.5180099184379 15.550935555973464
141 2 26.247813525010997 37.063700813177704 19.82897321041054
142 1 31.208030254146934 34.84542445528178 18.017758148635707
143 2 31.208030254146934 37.063700813177704 19.82897321041054
144 1 28.727921889578965 35.95456263422974 18.923365679523126
