#Lammps coordinate file for CSL - Axis: [1 1 1]  Angle: (1, 3) -> 59.99999999999999  Plane indices: [0 1 1]  z-position: [6.4336451853244885 19.300935555973464]  Repeats: 1 1 (3, 3) (black, white)  Fixed: 2.228  Boundary equiv: True
144 atoms

2 atom types

0.0 9.920433458271871 xlo xhi
0.0 11.091381789479609 ylo yhi
0.0 25.734580741297954 zlo zhi
4.9602167291359365 6.820298002561917 30.778584465805924 xy xz yz

Atoms

1 1 5.890257365848925 9.843601338163154 8.339252716211904
2 1 10.850474094984857 9.843601338163154 8.339252716211904
3 1 8.370365730416893 10.952739517111116 9.24486024709932
4 1 10.85047409498486 12.061877696059078 10.150467777986734
5 1 14.15728524774215 13.540728601323025 8.339252716211904
6 1 5.890257365848925 12.061877696059078 10.150467777986734
7 1 3.4101490012809577 13.17101587500704 11.05607530887415
8 2 5.890257365848925 14.280154053954998 11.961682839761563
9 1 3.4101490012809577 10.952739517111116 9.244860247099318
10 2 10.85047409498486 14.280154053954998 11.961682839761563
11 2 8.370365730416893 15.38929223290296 12.867290370648979
12 2 10.85047409498486 16.498430411850922 13.772897901536393
13 1 8.370365730416893 13.17101587500704 11.05607530887415
14 1 9.197068518606214 13.540728601323025 8.339252716211904
15 1 6.716960154038247 14.649866780270987 9.244860247099318
16 1 9.197068518606214 15.759004959218949 10.150467777986734
17 1 14.15728524774215 15.759004959218945 10.150467777986734
18 1 11.677176883174184 16.868143138166907 11.05607530887415
19 2 14.157285247742152 17.97728131711487 11.961682839761563
20 1 11.677176883174182 14.649866780270987 9.24486024709932
21 1 12.503879671363507 17.237855864482896 8.339252716211902
22 1 14.983988035931475 18.346994043430858 9.244860247099318
23 2 5.890257365848926 16.498430411850922 13.772897901536393
24 1 3.4101490012809585 17.607568590798884 14.678505432423808
25 1 5.890257365848926 18.716706769746846 15.584112963311222
26 2 3.4101490012809585 15.38929223290296 12.867290370648979
27 1 10.850474094984861 18.716706769746846 15.584112963311222
28 1 8.370365730416895 19.825844948694805 16.489720494198636
29 1 10.850474094984861 20.934983127642766 17.39532802508605
30 1 8.370365730416895 17.607568590798884 14.678505432423808
31 2 9.197068518606216 17.97728131711487 11.961682839761563
32 2 6.716960154038249 19.08641949606283 12.867290370648979
33 2 9.197068518606216 20.195557675010793 13.772897901536393
34 1 6.716960154038249 16.86814313816691 11.05607530887415
35 1 7.54366294222757 17.237855864482896 8.339252716211902
36 1 7.54366294222757 19.45613222237882 10.150467777986734
37 2 14.157285247742152 20.195557675010793 13.772897901536393
38 1 11.677176883174184 21.304695853958755 14.678505432423808
39 1 14.157285247742152 22.413834032906717 15.584112963311224
40 2 11.677176883174184 19.08641949606283 12.867290370648979
41 1 12.503879671363507 19.456132222378816 10.150467777986734
42 1 10.023771306795538 20.56527040132678 11.05607530887415
43 2 12.503879671363507 21.67440858027474 11.961682839761563
44 1 10.023771306795538 18.346994043430858 9.244860247099318
45 2 14.983988035931475 22.783546759222702 12.867290370648977
46 1 14.983988035931475 20.565270401326778 11.05607530887415
47 1 5.890257365848926 20.93498312764277 17.39532802508605
48 1 3.4101490012809594 19.825844948694808 16.489720494198636
49 1 9.197068518606216 22.413834032906717 15.584112963311222
50 1 6.716960154038251 23.522972211854675 16.489720494198636
51 1 9.197068518606217 24.632110390802637 17.39532802508605
52 1 6.716960154038249 21.304695853958755 14.678505432423808
53 2 7.54366294222757 21.67440858027474 11.961682839761563
54 2 7.543662942227572 23.892684938170664 13.772897901536393
55 1 14.157285247742152 24.632110390802637 17.39532802508605
56 1 11.677176883174184 23.522972211854675 16.48972049419864
57 2 12.503879671363507 23.892684938170664 13.772897901536393
58 1 10.02377130679554 25.001823117118626 14.678505432423808
59 1 12.503879671363508 26.110961296066588 15.584112963311224
60 2 10.023771306795538 22.783546759222702 12.867290370648979
61 1 14.983988035931473 27.220099475014546 16.489720494198636
62 1 14.983988035931471 25.001823117118622 14.678505432423808
63 1 7.543662942227572 26.110961296066588 15.58411296331122
64 1 7.543662942227572 28.329237653962508 17.39532802508605
65 1 12.503879671363508 28.329237653962508 17.395328025086048
66 1 10.02377130679554 27.220099475014546 16.489720494198636
67 1 4.440892098500626e-16 2.2182763578959226 1.8112150617748295
68 2 2.480108364567968 1.109138178947961 0.9056075308874145
69 2 4.960216729135936 -4.440892098500626e-16 -2.220446049250313e-16
70 2 0.0 0.0 0.0
71 1 4.440892098500626e-16 6.654829073687768 6.4336451853244885
72 1 2.480108364567968 3.327414536843884 2.7168225926622442
73 1 2.4801083645679682 5.545690894739806 4.528037654437074
74 1 4.960216729135936 4.436552715791845 3.622430123549659
75 1 4.440892098500626e-16 4.436552715791845 3.622430123549659
76 1 1.6534055763786455 5.915403621055794 1.811215061774829
77 2 7.440325093703903 1.109138178947961 0.9056075308874145
78 1 7.440325093703903 3.3274145368438837 2.7168225926622442
79 1 4.960216729135936 2.218276357895922 1.8112150617748293
80 2 4.133513940946613 4.806265442107832 0.9056075308874141
81 2 6.61362230551458 3.6971272631598704 -6.661338147750939e-16
82 2 1.6534055763786453 3.697127263159871 -6.661338147750939e-16
83 1 1.6534055763786455 10.351956336847639 6.4336451853244885
84 1 7.440325093703903 5.545690894739806 4.528037654437074
85 1 4.960216729135936 6.654829073687768 6.4336451853244885
86 1 4.133513940946613 7.024541800003755 2.7168225926622434
87 1 4.133513940946613 9.242818157899677 4.528037654437074
88 1 6.61362230551458 8.133679978951715 3.622430123549658
89 1 1.6534055763786457 8.133679978951717 3.622430123549658
90 1 3.3068111527572905 9.612530884215664 1.8112150617748288
91 2 9.093730670082548 4.806265442107832 0.9056075308874141
92 1 9.093730670082547 7.024541800003755 2.7168225926622434
93 1 6.61362230551458 5.915403621055793 1.8112150617748288
94 2 5.7869195173252574 8.503392705267704 0.9056075308874136
95 2 8.267027881893226 7.394254526319742 -1.1102230246251565e-15
96 2 3.3068111527572905 7.394254526319742 -6.661338147750939e-16
97 1 3.306811152757291 14.04908360000751 6.433645185324488
98 1 9.093730670082547 9.242818157899677 4.528037654437074
99 1 6.613622305514581 10.351956336847639 6.4336451853244885
100 1 5.786919517325258 10.721669063163628 2.7168225926622434
101 1 5.786919517325258 12.939945421059548 4.528037654437073
102 1 8.267027881893226 11.830807242111586 3.622430123549658
103 1 3.306811152757291 11.83080724211159 3.622430123549658
104 2 10.747136246461192 8.503392705267704 0.9056075308874136
105 1 10.747136246461192 10.721669063163628 2.7168225926622434
106 1 8.267027881893226 9.612530884215664 1.8112150617748286
107 1 6.8202980025619135 24.12375539211816 19.300935555973467
108 1 10.747136246461192 12.939945421059548 4.528037654437073
109 1 8.267027881893226 14.04908360000751 6.433645185324488
110 1 6.8202980025619135 28.560308107910004 23.923365679523123
111 1 9.300406367129881 25.23289357106612 21.20654308686088
112 1 9.300406367129883 27.451169928962045 23.01775814863571
113 1 11.78051473169785 26.342031750014083 22.112150617748295
114 1 6.8202980025619135 26.342031750014083 22.112150617748295
115 1 8.473703578940558 27.82088265527803 19.300935555973464
116 1 14.260623096265816 25.23289357106612 21.20654308686088
117 1 11.78051473169785 24.12375539211816 19.300935555973464
118 2 9.300406367129883 29.669446286857966 24.82897321041054
119 1 8.47370357894056 32.257435371069874 23.923365679523123
120 1 14.260623096265816 27.45116992896204 23.017758148635707
121 2 14.260623096265817 29.669446286857966 24.82897321041054
122 1 11.78051473169785 28.560308107910004 23.923365679523126
123 1 10.953811943508526 28.930020834225992 21.20654308686088
124 1 10.953811943508528 31.148297192121916 23.01775814863571
125 1 13.433920308076495 30.039159013173954 22.112150617748295
126 1 8.47370357894056 30.039159013173954 22.112150617748295
127 1 10.127109155319204 31.5180099184379 19.300935555973464
128 1 15.914028672644463 28.930020834225992 21.20654308686088
129 1 13.433920308076495 27.82088265527803 19.300935555973464
130 2 10.953811943508528 33.36657355001783 24.82897321041054
131 1 10.127109155319205 35.95456263422974 23.923365679523123
132 1 15.914028672644463 31.148297192121913 23.017758148635707
133 2 15.914028672644463 33.36657355001783 24.82897321041054
134 1 13.433920308076495 32.257435371069874 23.923365679523126
135 1 12.607217519887172 32.62714809738586 21.20654308686088
136 1 12.607217519887174 34.84542445528178 23.01775814863571
137 1 15.08732588445514 33.73628627633382 22.112150617748295
138 1 10.127109155319205 33.73628627633382 22.112150617748295
139 1 17.56743424902311 32.62714809738586 21.20654308686088
140 1 15.08732588445514 31.5180099184379 19.300935555973464
141 2 12.607217519887174 37.063700813177704 24.82897321041054
142 1 17.56743424902311 34.84542445528178 23.017758148635707
143 2 17.56743424902311 37.063700813177704 24.82897321041054
144 1 15.08732588445514 35.95456263422974 23.923365679523126
