#Lammps coordinate file for CSL - Axis: [1 1 1]  Angle: (1, 3) -> 59.99999999999999  Plane indices: [0 1 1]  z-position: [5.1836451853244885 15.550935555973464]  Repeats: 1 1 (3, 3) (black, white)  Fixed: 2.228  Boundary equiv: True
144 atoms

2 atom types

0.0 9.920433458271871 xlo xhi
0.0 11.091381789479609 ylo yhi
0.0 20.734580741297954 zlo zhi
4.9602167291359365 6.200270911419926 34.937852636860775 xy xz yz

Atoms

1 1 5.580243820277929 11.923235423690581 5.839252716211904
2 1 10.540460549413861 11.923235423690581 5.839252716211904
3 1 8.060352184845897 13.032373602638543 6.74486024709932
4 1 10.540460549413863 14.141511781586505 7.650467777986734
5 1 13.847271702171154 15.620362686850452 5.839252716211904
6 1 5.5802438202779285 14.141511781586505 7.650467777986734
7 1 3.100135455709962 15.250649960534467 8.55607530887415
8 2 5.580243820277929 16.359788139482426 9.461682839761563
9 1 3.100135455709962 13.032373602638543 6.744860247099319
10 2 10.540460549413863 16.359788139482426 9.461682839761563
11 2 8.060352184845897 17.468926318430388 10.367290370648979
12 2 10.540460549413865 18.57806449737835 11.272897901536393
13 1 8.060352184845897 15.250649960534467 8.55607530887415
14 1 8.887054973035218 15.620362686850452 5.839252716211904
15 1 6.406946608467252 16.729500865798414 6.744860247099319
16 1 8.88705497303522 17.838639044746376 7.650467777986734
17 1 13.847271702171154 17.838639044746373 7.650467777986734
18 1 11.367163337603188 18.947777223694334 8.55607530887415
19 2 13.847271702171156 20.056915402642296 9.461682839761563
20 1 11.367163337603186 16.729500865798414 6.74486024709932
21 1 12.19386612579251 19.317489950010323 5.839252716211903
22 1 14.673974490360479 20.426628128958285 6.744860247099318
23 2 5.58024382027793 18.57806449737835 11.272897901536393
24 1 3.100135455709963 19.68720267632631 12.178505432423808
25 1 5.58024382027793 20.796340855274273 13.084112963311222
26 2 3.100135455709963 17.468926318430388 10.367290370648979
27 1 10.540460549413865 20.796340855274273 13.084112963311222
28 1 8.060352184845899 21.905479034222232 13.989720494198638
29 1 10.540460549413865 23.014617213170194 14.895328025086053
30 1 8.060352184845899 19.68720267632631 12.178505432423808
31 2 8.88705497303522 20.056915402642296 9.461682839761563
32 2 6.406946608467253 21.16605358159026 10.367290370648979
33 2 8.88705497303522 22.27519176053822 11.272897901536393
34 1 6.406946608467253 18.947777223694338 8.55607530887415
35 1 7.233649396656574 19.317489950010323 5.839252716211903
36 1 7.233649396656574 21.535766307906247 7.650467777986734
37 2 13.847271702171156 22.27519176053822 11.272897901536393
38 1 11.367163337603188 23.384329939486182 12.178505432423808
39 1 13.847271702171156 24.493468118434144 13.084112963311224
40 2 11.367163337603188 21.16605358159026 10.367290370648979
41 1 12.19386612579251 21.535766307906243 7.650467777986734
42 1 9.713757761224542 22.64490448685421 8.55607530887415
43 2 12.19386612579251 23.754042665802167 9.461682839761563
44 1 9.713757761224542 20.426628128958285 6.744860247099319
45 2 14.673974490360479 24.86318084475013 10.367290370648977
46 1 14.673974490360479 22.644904486854205 8.55607530887415
47 1 5.580243820277931 23.014617213170197 14.895328025086052
48 1 3.100135455709964 21.905479034222235 13.989720494198638
49 1 8.88705497303522 24.493468118434144 13.084112963311222
50 1 6.406946608467255 25.602606297382103 13.989720494198638
51 1 8.887054973035221 26.711744476330065 14.895328025086053
52 1 6.406946608467254 23.384329939486182 12.178505432423808
53 2 7.233649396656575 23.754042665802167 9.461682839761563
54 2 7.233649396656576 25.97231902369809 11.272897901536393
55 1 13.847271702171156 26.711744476330065 14.895328025086052
56 1 11.367163337603188 25.602606297382103 13.98972049419864
57 2 12.19386612579251 25.97231902369809 11.272897901536393
58 1 9.713757761224544 27.081457202646053 12.178505432423808
59 1 12.193866125792512 28.190595381594015 13.084112963311224
60 2 9.713757761224542 24.86318084475013 10.367290370648979
61 1 14.673974490360477 29.299733560541974 13.989720494198636
62 1 14.673974490360475 27.08145720264605 12.178505432423808
63 1 7.233649396656576 28.190595381594015 13.08411296331122
64 1 7.233649396656576 30.408871739489935 14.895328025086052
65 1 12.193866125792512 30.408871739489935 14.89532802508605
66 1 9.713757761224544 29.299733560541974 13.989720494198638
67 1 0.0 2.2182763578959226 1.8112150617748295
68 2 2.480108364567968 1.109138178947961 0.9056075308874146
69 2 4.960216729135936 -8.881784197001252e-16 -1.6653345369377348e-16
70 2 0.0 0.0 0.0
71 1 4.440892098500626e-16 6.654829073687768 5.1836451853244885
72 1 2.480108364567968 3.327414536843884 2.7168225926622442
73 1 2.4801083645679682 5.545690894739806 4.528037654437074
74 1 4.960216729135936 4.436552715791845 3.622430123549659
75 1 4.440892098500626e-16 4.436552715791845 3.622430123549659
76 1 1.6534055763786455 5.915403621055794 1.8112150617748295
77 2 7.440325093703903 1.109138178947961 0.9056075308874146
78 1 7.440325093703903 3.3274145368438837 2.7168225926622442
79 1 4.960216729135936 2.218276357895922 1.8112150617748295
80 2 4.133513940946613 4.806265442107832 0.9056075308874142
81 2 6.61362230551458 3.6971272631598704 -5.551115123125783e-16
82 2 1.6534055763786453 3.697127263159871 -3.3306690738754696e-16
83 1 1.6534055763786455 10.351956336847639 5.1836451853244885
84 1 7.440325093703903 5.545690894739806 4.528037654437074
85 1 4.960216729135936 6.654829073687768 5.1836451853244885
86 1 4.133513940946613 7.024541800003755 2.716822592662244
87 1 4.133513940946613 9.242818157899677 4.528037654437074
88 1 6.61362230551458 8.133679978951715 3.622430123549659
89 1 1.6534055763786457 8.133679978951717 3.622430123549659
90 1 3.3068111527572905 9.612530884215664 1.811215061774829
91 2 9.093730670082548 4.806265442107832 0.9056075308874142
92 1 9.093730670082547 7.024541800003755 2.716822592662244
93 1 6.61362230551458 5.915403621055793 1.811215061774829
94 2 5.7869195173252574 8.503392705267704 0.9056075308874137
95 2 8.267027881893226 7.394254526319742 -9.43689570931383e-16
96 2 3.3068111527572905 7.394254526319742 -7.216449660063518e-16
97 1 3.306811152757291 14.04908360000751 5.183645185324488
98 1 9.093730670082547 9.242818157899677 4.528037654437074
99 1 6.613622305514581 10.351956336847639 5.1836451853244885
100 1 5.786919517325258 10.721669063163626 2.7168225926622434
101 1 5.786919517325258 12.939945421059548 4.528037654437073
102 1 8.267027881893226 11.830807242111586 3.622430123549658
103 1 3.306811152757291 11.830807242111588 3.622430123549658
104 2 10.747136246461192 8.503392705267704 0.9056075308874137
105 1 10.747136246461192 10.721669063163626 2.7168225926622434
106 1 8.267027881893226 9.612530884215664 1.8112150617748286
107 1 6.200270911419922 28.283023563173014 15.550935555973467
108 1 10.747136246461192 12.939945421059548 4.528037654437073
109 1 8.267027881893226 14.04908360000751 5.183645185324488
110 1 6.200270911419922 32.71957627896486 18.923365679523123
111 1 8.680379275987889 29.392161742120976 16.20654308686088
112 1 8.68037927598789 31.6104381000169 18.01775814863571
113 1 11.160487640555857 30.501299921068938 17.112150617748295
114 1 6.200270911419922 30.501299921068938 17.112150617748295
115 1 7.853676487798567 31.980150826332885 15.550935555973464
116 1 13.640596005123825 29.392161742120976 16.20654308686088
117 1 11.160487640555857 28.283023563173014 15.550935555973464
118 2 8.68037927598789 33.82871445791282 19.82897321041054
119 1 7.853676487798568 36.41670354212473 18.923365679523123
120 1 13.640596005123825 31.610438100016896 18.017758148635707
121 2 13.640596005123825 33.82871445791282 19.82897321041054
122 1 11.160487640555857 32.71957627896486 18.923365679523126
123 1 10.333784852366534 33.08928900528085 16.20654308686088
124 1 10.333784852366536 35.30756536317677 18.01775814863571
125 1 12.813893216934503 34.198427184228805 17.112150617748295
126 1 7.853676487798568 34.198427184228805 17.112150617748295
127 1 9.507082064177212 35.67727808949275 15.550935555973464
128 1 15.29400158150247 33.08928900528085 16.20654308686088
129 1 12.813893216934503 31.980150826332885 15.550935555973464
130 2 10.333784852366536 37.52584172107269 19.82897321041054
131 1 9.507082064177213 40.1138308052846 18.923365679523123
132 1 15.29400158150247 35.307565363176764 18.017758148635707
133 2 15.29400158150247 37.52584172107269 19.82897321041054
134 1 12.813893216934503 36.41670354212473 18.923365679523126
135 1 11.98719042874518 36.78641626844072 16.20654308686088
136 1 11.987190428745182 39.00469262633664 18.01775814863571
137 1 14.467298793313148 37.895554447388676 17.112150617748295
138 1 9.507082064177213 37.895554447388676 17.112150617748295
139 1 16.947407157881116 36.78641626844072 16.20654308686088
140 1 14.467298793313148 35.67727808949275 15.550935555973464
141 2 11.987190428745182 41.222968984232566 19.82897321041054
142 1 16.947407157881116 39.004692626336634 18.017758148635707
143 2 16.947407157881116 41.222968984232566 19.82897321041054
144 1 14.467298793313148 40.1138308052846 18.923365679523126
