ITEM: TIMESTEP
100000
ITEM: NUMBER OF ATOMS
144
ITEM: BOX BOUNDS xy xz yz pp pp pp
0.0000000000000000e+00 2.9141273283673627e+01 4.9602167291359365e+00
0.0000000000000000e+00 4.1869966255285533e+01 1.4260623096265821e+01
0.0000000000000000e+00 1.9734580741297954e+01 3.0778584465805924e+01
ITEM: ATOMS id type x y z c_peatom
70 2 0 0 0 -3.34533
82 2 1.65341 3.69713 0 -3.25907
69 2 4.96022 0 0 -3.34533
81 2 6.61362 3.69713 0 -3.25907
80 2 4.13351 4.80627 0.905608 -3.23208
86 1 4.29842 6.75881 2.44285 -3.1893
87 1 4.61467 8.66891 3.98583 -3.17662
88 1 6.91601 7.75906 3.17644 -3.14181
91 2 9.09373 4.80627 0.905608 -3.23208
92 1 9.25864 6.75881 2.44285 -3.1893
93 1 6.66532 5.75117 1.51832 -3.16049
94 2 5.78692 8.50339 0.905608 -3.3475
95 2 8.26703 7.39425 0 -3.25907
98 1 9.57488 8.66891 3.98583 -3.17662
76 1 11.6255 5.75117 1.51832 -3.16049
89 1 11.8762 7.75906 3.17644 -3.14181
96 2 13.2272 7.39425 0 -3.25907
104 2 10.7471 8.50339 0.905608 -3.3475
68 2 7.44033 12.2005 0.905608 -3.28991
100 1 5.99854 10.6898 2.7231 -3.33872
102 1 8.51842 11.2442 3.1854 -3.02408
106 1 8.3273 9.43964 1.56963 -3.16236
77 2 12.4005 12.2005 0.905608 -3.28991
79 1 9.90052 13.224 1.62886 -3.27398
90 1 13.2875 9.43964 1.56963 -3.16236
103 1 13.4786 11.2442 3.1854 -3.02408
105 1 10.9588 10.6898 2.7231 -3.33872
108 1 9.94252 12.9268 4.33142 -3.13391
67 1 14.8607 13.224 1.62886 -3.27398
101 1 14.9027 12.9268 4.33142 -3.13391
72 1 7.38734 13.9573 2.83268 -3.34475
74 1 9.83456 15.2992 3.28693 -3.17441
78 1 12.3476 13.9573 2.83268 -3.34475
84 1 12.1586 16.2982 3.95565 -3.11577
73 1 17.1188 16.2982 3.95565 -3.11577
75 1 14.7948 15.2992 3.28693 -3.17441
2 1 4.88951 10.4516 5.73714 -3.27077
5 1 7.22871 12.2759 5.12491 -3.07102
7 1 7.21016 13.3844 8.05057 -3.31259
9 1 7.50585 11.0142 7.04494 -2.78445
99 1 7.24356 9.4727 4.97471 -3.24607
1 1 9.84973 10.4516 5.73714 -3.27077
6 1 9.78526 12.4603 7.15265 -3.25668
3 1 12.4661 11.0142 7.04494 -2.78445
13 1 12.1704 13.3844 8.05057 -3.31259
14 1 12.1889 12.2759 5.12491 -3.07102
83 1 12.2038 9.4727 4.97471 -3.24607
4 1 14.7455 12.4603 7.15265 -3.25668
109 1 8.32255 14.4865 5.5021 -3.02413
8 2 9.61042 14.2802 8.96168 -3.26804
17 1 8.13509 16.0244 7.37193 -3.14093
85 1 9.44778 17.0663 5.07514 -3.14587
97 1 13.2828 14.4865 5.5021 -3.02413
10 2 14.5706 14.2802 8.96168 -3.26804
15 1 10.7747 14.9658 6.19992 -3.35296
16 1 13.0953 16.0244 7.37193 -3.14093
31 2 12.9172 17.9773 8.96168 -3.31238
34 1 10.5008 16.9441 8.12728 -3.34838
35 1 11.7371 17.8564 5.85384 -3.10893
71 1 14.408 17.0663 5.07514 -3.14587
18 1 15.461 16.9441 8.12728 -3.34838
19 2 17.8774 17.9773 8.96168 -3.31238
20 1 15.7349 14.9658 6.19992 -3.35296
21 1 16.6973 17.8564 5.85384 -3.10893
22 1 9.04954 18.9468 6.61026 -3.16421
44 1 14.0098 18.9468 6.61026 -3.16421
36 1 11.4258 19.672 7.47045 -3.13618
42 1 13.9141 20.6429 8.40872 -3.06503
53 2 11.2638 21.6744 8.96168 -3.1033
41 1 16.3861 19.672 7.47045 -3.13618
43 2 16.224 21.6744 8.96168 -3.1033
46 1 18.8744 20.6429 8.40872 -3.06503
26 2 7.13031 15.3893 9.86729 -3.29872
11 2 12.0905 15.3893 9.86729 -3.29872
32 2 10.4371 19.0864 9.86729 -3.30916
33 2 12.9172 20.1956 10.7729 -3.1033
49 1 12.7552 22.198 12.2641 -3.13618
52 1 10.2669 21.2271 11.3259 -3.06503
60 2 13.7439 22.7835 9.86729 -3.30916
37 2 17.8774 20.1956 10.7729 -3.1033
38 1 15.2271 21.2271 11.3259 -3.06503
39 1 17.7154 22.198 12.2641 -3.13618
40 2 15.3973 19.0864 9.86729 -3.30916
45 2 18.7042 22.7835 9.86729 -3.30916
56 1 15.1315 22.9231 13.1243 -3.16421
50 1 20.0917 22.9231 13.1243 -3.16421
51 1 12.444 24.0136 13.8807 -3.10893
54 2 11.2638 23.8927 10.7729 -3.31238
58 1 13.6802 24.9258 11.6073 -3.34838
66 1 13.4063 26.9041 13.5347 -3.35296
23 2 14.5706 27.5898 10.7729 -3.26804
55 1 17.4042 24.0136 13.8807 -3.10893
57 2 16.224 23.8927 10.7729 -3.31238
59 1 16.046 25.8456 12.3627 -3.14093
61 1 18.3665 26.9041 13.5347 -3.35296
62 1 18.6405 24.9258 11.6073 -3.34838
115 1 15.8585 27.3835 14.2325 -3.02413
107 1 14.7333 24.8036 14.6594 -3.14587
117 1 19.6935 24.8036 14.6594 -3.14587
12 2 19.5309 27.5898 10.7729 -3.26804
63 1 21.0062 25.8456 12.3627 -3.14093
129 1 20.8187 27.3835 14.2325 -3.02413
25 1 14.3958 29.4097 12.5819 -3.25668
28 1 16.6752 30.8558 12.6896 -2.78445
30 1 16.9709 28.4856 11.684 -3.31259
65 1 16.9523 29.5941 14.6097 -3.07102
127 1 16.9375 32.3973 14.7599 -3.24607
27 1 19.356 29.4097 12.5819 -3.25668
29 1 19.2915 31.4184 13.9974 -3.27077
24 1 21.9311 28.4856 11.684 -3.31259
48 1 21.6354 30.8558 12.6896 -2.78445
64 1 21.9126 29.5941 14.6097 -3.07102
140 1 21.8977 32.3973 14.7599 -3.24607
47 1 24.2518 31.4184 13.9974 -3.27077
114 1 14.3465 26.5707 16.4476 -3.17441
116 1 12.0225 25.5718 15.7789 -3.11577
111 1 16.9827 25.5718 15.7789 -3.11577
112 1 16.7937 27.9127 16.9019 -3.34475
113 1 19.3067 26.5707 16.4476 -3.17441
120 1 21.7539 27.9127 16.9019 -3.34475
110 1 14.2805 28.646 18.1057 -3.27398
128 1 14.2385 28.9431 15.4032 -3.13391
118 2 16.7407 29.6694 18.829 -3.28991
119 1 15.8538 32.4303 18.1649 -3.16236
122 1 19.2408 28.646 18.1057 -3.27398
123 1 19.1988 28.9431 15.4032 -3.13391
124 1 18.1825 31.1802 17.0115 -3.33872
126 1 15.6626 30.6257 16.5492 -3.02408
121 2 21.7009 29.6694 18.829 -3.28991
125 1 20.6229 30.6257 16.5492 -3.02408
132 1 23.1427 31.1802 17.0115 -3.33872
134 1 20.814 32.4303 18.1649 -3.16236
130 2 18.3941 33.3666 18.829 -3.3475
131 1 17.5157 36.1188 18.2163 -3.16049
138 1 17.265 34.1109 16.5581 -3.14181
133 2 23.3544 33.3666 18.829 -3.3475
135 1 19.5664 33.2011 15.7488 -3.17662
136 1 19.8826 35.1112 17.2917 -3.1893
137 1 22.2253 34.1109 16.5581 -3.14181
141 2 20.0475 37.0637 18.829 -3.23208
144 1 22.476 36.1188 18.2163 -3.16049
139 1 24.5266 33.2011 15.7488 -3.17662
142 1 24.8428 35.1112 17.2917 -3.1893
143 2 25.0078 37.0637 18.829 -3.23208
