ITEM: TIMESTEP
99
ITEM: NUMBER OF ATOMS
144
ITEM: BOX BOUNDS xy xz yz pp pp pp
0.0000000000000000e+00 2.5421110736821682e+01 4.9602167291359365e+00
0.0000000000000000e+00 5.5734193492135049e+01 1.0540460549413872e+01
0.0000000000000000e+00 1.9734580741297954e+01 4.4642811702655436e+01
ITEM: ATOMS id type x y z c_peatom
69 2 4.96022 5.02301e-16 0 -3.25473
70 2 0 0 0 -3.25473
81 2 6.61362 3.69713 0 -3.29637
82 2 11.5738 3.69713 0 -3.29637
80 2 4.13351 4.80627 0.905608 -3.1952
86 1 4.23119 7.10551 2.39915 -3.14702
91 2 9.09373 4.80627 0.905608 -3.1952
92 1 9.1914 7.10551 2.39915 -3.14702
93 1 6.64159 5.99112 1.46813 -3.15343
94 2 5.78692 8.50339 0.905608 -3.25967
95 2 8.26703 7.39425 0 -3.29637
76 1 11.6018 5.99112 1.46813 -3.15343
96 2 13.2272 7.39425 0 -3.29637
104 2 10.7471 8.50339 0.905608 -3.25967
68 2 7.44033 12.2005 0.905608 -3.29288
79 1 9.98774 13.2026 1.6117 -3.27276
100 1 5.8878 10.7494 2.44759 -3.09911
101 1 6.23091 13.2606 4.11191 -3.13432
102 1 8.54061 11.7876 3.66424 -3.45592
106 1 8.33334 9.6565 1.81165 -3.33794
67 1 14.948 13.2026 1.6117 -3.27276
77 2 12.4005 12.2005 0.905608 -3.29288
90 1 13.2936 9.6565 1.81165 -3.33794
103 1 3.58039 11.7876 3.66424 -3.45592
105 1 10.848 10.7494 2.44759 -3.09911
108 1 11.1911 13.2606 4.11191 -3.13432
72 1 7.68176 14.2775 2.31779 -3.11216
73 1 7.71981 16.6126 3.59624 -3.00606
74 1 10.2832 15.4089 2.89884 -2.97923
109 1 8.7273 14.5905 4.7208 -2.98831
75 1 15.2434 15.4089 2.89884 -2.97923
78 1 12.642 14.2775 2.31779 -3.11216
84 1 12.68 16.6126 3.59624 -3.00606
97 1 13.6875 14.5905 4.7208 -2.98831
87 1 8.9389 19.4582 4.70771 -3.31028
88 1 6.59755 8.14121 3.3353 -3.23953
98 1 13.8991 19.4582 4.70771 -3.31028
89 1 11.5578 8.14121 3.3353 -3.23953
35 1 9.56069 23.9633 6.08289 -2.88842
21 1 14.5209 23.9633 6.08289 -2.88842
1 1 7.79838 17.0388 5.99332 -3.19629
9 1 5.39062 17.95 6.88746 -2.90805
44 1 11.9532 25.3341 6.5698 -3.2322
85 1 10.2534 17.0778 4.68748 -3.1286
2 1 12.7586 17.0388 5.99332 -3.19629
3 1 10.3508 17.95 6.88746 -2.90805
22 1 16.9134 25.3341 6.5698 -3.2322
71 1 15.2136 17.0778 4.68748 -3.1286
6 1 7.94178 19.0846 7.51477 -3.10347
7 1 5.31486 20.1861 8.27659 -3.29839
8 2 7.75034 21.2123 8.96168 -3.24018
15 1 8.64684 21.5385 6.33767 -3.36457
4 1 12.902 19.0846 7.51477 -3.10347
10 2 12.7106 21.2123 8.96168 -3.24018
13 1 10.2751 20.1861 8.27659 -3.29839
14 1 11.3739 19.8741 5.80553 -2.86838
16 1 11.2181 22.5994 7.35544 -3.21889
20 1 13.6071 21.5385 6.33767 -3.36457
99 1 11.0096 21.9417 4.85717 -2.89172
5 1 6.41365 19.8741 5.80553 -2.86838
17 1 16.1783 22.5994 7.35544 -3.21889
83 1 15.9699 21.9417 4.85717 -2.89172
34 1 8.56337 23.7662 8.29546 -3.23068
36 1 9.50516 26.4368 7.27768 -3.32726
18 1 13.5236 23.7662 8.29546 -3.23068
31 2 11.0571 24.9094 8.96168 -3.31552
41 1 14.4654 26.4368 7.27768 -3.32726
42 1 11.9386 27.4555 8.34452 -3.21875
19 2 16.0174 24.9094 8.96168 -3.31552
46 1 16.8988 27.4555 8.34452 -3.21875
53 2 9.40374 28.6065 8.96168 -3.16424
43 2 14.364 28.6065 8.96168 -3.16424
11 2 10.2304 22.3214 9.86729 -3.28111
26 2 15.1907 22.3214 9.86729 -3.28111
32 2 8.57704 26.0185 9.86729 -3.33841
33 2 11.0571 27.1277 10.7729 -3.16424
40 2 13.5373 26.0185 9.86729 -3.33841
37 2 16.0174 27.1277 10.7729 -3.16424
52 1 8.52234 28.2787 11.3901 -3.21875
54 2 9.40374 30.8248 10.7729 -3.31552
38 1 13.4826 28.2787 11.3901 -3.21875
49 1 10.9557 29.2974 12.4569 -3.32726
57 2 14.364 30.8248 10.7729 -3.31552
58 1 11.8975 31.968 11.4391 -3.23068
60 2 11.8839 29.7157 9.86729 -3.33841
39 1 15.916 29.2974 12.4569 -3.32726
45 2 16.8441 29.7157 9.86729 -3.33841
62 1 16.8577 31.968 11.4391 -3.23068
63 1 9.24277 33.1348 12.3791 -3.21889
64 1 19.0075 35.8601 13.929 -2.86838
127 1 9.45126 33.7925 14.8774 -2.89172
23 2 12.7106 34.5219 10.7729 -3.24018
25 1 12.5191 36.6496 12.2198 -3.10347
30 1 15.146 35.5481 11.458 -3.29839
59 1 14.203 33.1348 12.3791 -3.21889
65 1 14.0472 35.8601 13.929 -2.86838
66 1 11.8141 34.1957 13.3969 -3.36457
140 1 14.4115 33.7925 14.8774 -2.89172
12 2 17.6708 34.5219 10.7729 -3.24018
24 1 20.1063 35.5481 11.458 -3.29839
27 1 17.4793 36.6496 12.2198 -3.10347
61 1 16.7743 34.1957 13.3969 -3.36457
28 1 15.0703 37.7842 12.8471 -2.90805
47 1 12.6625 38.6954 13.7413 -3.19629
50 1 8.50767 30.4001 13.1648 -3.2322
115 1 11.7336 41.1437 15.0138 -2.98831
29 1 17.6227 38.6954 13.7413 -3.19629
48 1 20.0305 37.7842 12.8471 -2.90805
56 1 13.4679 30.4001 13.1648 -3.2322
117 1 15.1677 38.6564 15.0471 -3.1286
129 1 16.6938 41.1437 15.0138 -2.98831
51 1 10.9002 31.7709 13.6517 -2.88842
55 1 15.8604 31.7709 13.6517 -2.88842
138 1 13.8633 47.593 16.3993 -3.23953
135 1 11.522 36.276 15.0269 -3.31028
137 1 18.8236 47.593 16.3993 -3.23953
139 1 16.4822 36.276 15.0269 -3.31028
107 1 10.2075 38.6564 15.0471 -3.1286
111 1 12.7411 39.1216 16.1383 -3.00606
112 1 12.7791 41.4567 17.4168 -3.11216
114 1 10.1777 40.3252 16.8357 -2.97923
113 1 15.1379 40.3252 16.8357 -2.97923
116 1 17.7013 39.1216 16.1383 -3.00606
120 1 17.7393 41.4567 17.4168 -3.11216
110 1 10.4732 42.5316 18.1229 -3.27276
118 2 13.0206 43.5337 18.829 -3.29288
119 1 12.1276 46.0777 17.9229 -3.33794
123 1 14.23 42.4736 15.6227 -3.13432
124 1 14.5731 44.9848 17.287 -3.09911
126 1 21.8407 43.9466 16.0703 -3.45592
121 2 17.9808 43.5337 18.829 -3.29288
122 1 15.4334 42.5316 18.1229 -3.27276
125 1 16.8805 43.9466 16.0703 -3.45592
128 1 19.1902 42.4736 15.6227 -3.13432
132 1 19.5333 44.9848 17.287 -3.09911
134 1 17.0878 46.0777 17.9229 -3.33794
130 2 14.674 47.2308 18.829 -3.25967
131 1 13.8193 49.7431 18.2665 -3.15343
133 2 19.6342 47.2308 18.829 -3.25967
136 1 16.2297 48.6287 17.3354 -3.14702
141 2 16.3274 50.9279 18.829 -3.1952
144 1 18.7795 49.7431 18.2665 -3.15343
142 1 21.1899 48.6287 17.3354 -3.14702
143 2 21.2876 50.9279 18.829 -3.1952
