ITEM: TIMESTEP
110077
ITEM: NUMBER OF ATOMS
144
ITEM: BOX BOUNDS xy xz yz pp pp pp
0.0000000000000000e+00 2.7901219101389643e+01 4.9602167291359365e+00
0.0000000000000000e+00 5.2961348044765145e+01 1.3020568913981837e+01
0.0000000000000000e+00 2.2734580741297954e+01 4.1869966255285533e+01
ITEM: ATOMS id type x y z c_peatom
70 2 0 0 0 -3.38241
69 2 4.96022 3.06702e-16 0 -3.35719
81 2 6.61362 3.69713 0 -3.35672
82 2 11.5738 3.69713 0 -3.36186
80 2 4.13351 4.80627 0.905608 -3.34966
86 1 4.17089 6.95992 2.72879 -3.34746
88 1 6.71587 8.02685 3.66597 -3.30491
91 2 9.09373 4.80627 0.905608 -3.35132
93 1 6.63126 5.86871 1.86116 -3.34627
94 2 5.78692 8.50339 0.905608 -3.35461
95 2 8.26703 7.39425 0 -3.36542
92 1 9.1344 7.03653 2.80178 -3.35395
76 1 11.5821 5.94623 1.84422 -3.35286
89 1 11.5847 8.20348 3.67632 -3.29922
96 2 13.2272 7.39425 0 -3.34989
104 2 10.7471 8.50339 0.905608 -3.37007
68 2 7.44033 12.2005 0.905608 -3.32094
100 1 5.81376 10.5502 2.61676 -3.25865
106 1 8.31877 9.60929 1.88733 -3.31436
102 1 6.26192 12.5551 4.16378 -3.15003
77 2 12.4005 12.2005 0.905608 -3.34894
90 1 13.192 9.54421 1.76702 -3.35112
103 1 13.2996 11.6509 3.44902 -3.20711
105 1 10.6829 10.8532 2.81883 -3.17734
72 1 7.49276 14.5203 2.78645 -3.28794
79 1 9.91174 13.3584 1.8593 -3.26231
74 1 9.92409 15.5212 3.82575 -3.32719
78 1 12.4141 14.3925 2.88146 -3.33681
67 1 14.8975 13.3369 1.84052 -3.36123
75 1 14.9515 15.571 3.76114 -3.36648
87 1 4.23468 9.07438 4.44402 -3.26417
109 1 9.01913 12.8676 4.7467 -3.16319
99 1 6.7022 10.1372 5.39145 -3.14868
98 1 9.25224 9.43441 4.77591 -3.1508
83 1 13.0184 10.8097 6.05303 -3.1645
73 1 7.46891 16.7659 4.70568 -3.35007
1 1 8.97904 15.37 6.73149 -3.32814
9 1 6.51154 16.5941 7.70145 -3.33624
2 1 6.52388 14.4495 5.96309 -3.28008
6 1 8.99041 17.6454 8.55078 -3.3488
101 1 13.8538 13.486 5.20648 -3.20368
84 1 12.4474 16.6366 4.76521 -3.34611
108 1 11.3564 14.2077 5.88725 -3.26759
3 1 11.4441 16.4659 7.70979 -3.34265
97 1 13.9338 15.5118 6.89032 -3.31958
4 1 13.9495 17.6291 8.6604 -3.32661
5 1 7.42349 19.0928 6.54931 -3.33264
17 1 7.344 21.2598 8.64329 -3.34709
85 1 9.95008 17.8109 5.67429 -3.34105
14 1 12.4132 18.9039 6.64389 -3.31094
15 1 9.87175 20.1954 7.48015 -3.37546
16 1 12.3159 21.2814 8.45348 -3.32896
71 1 14.8976 17.8961 5.6461 -3.32663
20 1 14.8226 20.0802 7.64022 -3.28188
35 1 10.5219 23.0017 6.92008 -3.27547
36 1 10.6255 25.0679 8.68248 -3.36167
44 1 13.0934 23.8971 7.65717 -3.315
21 1 15.4653 22.6525 6.76931 -3.17687
22 1 17.9926 23.9735 7.83285 -3.34133
41 1 15.5473 24.9812 8.62374 -3.3803
7 1 6.52735 18.7234 9.52619 -3.33732
8 2 8.99039 19.8258 10.4617 -3.33397
10 2 13.9506 19.8258 10.4617 -3.34886
11 2 11.4705 20.935 11.3673 -3.35175
13 1 11.4584 18.7425 9.49557 -3.34964
26 2 16.4307 20.935 11.3673 -3.33829
31 2 12.2972 23.523 10.4617 -3.36767
32 2 9.8171 24.6321 11.3673 -3.35639
33 2 12.2972 25.7412 12.2729 -3.35998
34 1 9.82625 22.3801 9.54026 -3.36865
42 1 13.1235 26.1298 9.517 -3.37128
18 1 14.7654 22.3861 9.51009 -3.34558
19 2 17.2574 23.523 10.4617 -3.36316
37 2 17.2574 25.7412 12.2729 -3.38107
40 2 14.7773 24.6321 11.3673 -3.36804
46 1 18.0595 26.1416 9.57312 -3.35814
52 1 9.82688 26.7969 13.1838 -3.36817
53 2 10.6438 27.2201 10.4617 -3.36149
54 2 10.6438 29.4384 12.2729 -3.36568
58 1 13.123 30.5834 13.1935 -3.34365
60 2 13.1239 28.3292 11.3673 -3.3636
38 1 14.8326 26.8385 13.1617 -3.36641
43 2 15.604 27.2201 10.4617 -3.36306
45 2 18.0841 28.3292 11.3673 -3.37132
57 2 15.604 29.4384 12.2729 -3.34248
62 1 18.0837 30.5899 13.3224 -3.33782
23 2 13.9506 33.1355 12.2729 -3.34601
30 1 16.4039 34.2397 13.1998 -3.33984
12 2 18.9108 33.1355 12.2729 -3.33334
24 1 21.3994 34.2177 13.2484 -3.35266
49 1 12.4069 27.9003 14.0168 -3.36668
50 1 10.0457 28.9185 14.896 -3.16262
51 1 12.5825 29.9802 15.839 -3.21718
39 1 17.345 27.9784 14.1135 -3.23734
55 1 18.6277 30.5078 16.4145 -3.10752
56 1 14.993 29.1167 14.9731 -3.18308
66 1 13.0359 32.7837 15.2351 -3.30994
107 1 12.9975 35.119 17.0758 -3.31971
59 1 15.5536 31.744 14.1753 -3.27658
61 1 17.9593 32.8746 15.1935 -3.32317
65 1 15.4762 33.9444 16.1539 -3.32785
117 1 17.9282 35.1449 17.0692 -3.35441
63 1 20.5249 31.6645 14.3283 -3.37445
64 1 20.4252 34.0429 16.1216 -3.34328
27 1 18.8905 35.2947 14.0627 -3.32944
25 1 13.923 35.3601 14.1843 -3.35097
47 1 13.8237 37.7143 16.144 -3.19953
28 1 16.3616 36.3998 15.0044 -3.32966
115 1 16.5028 38.4608 16.7245 -3.24302
111 1 15.4648 36.2117 18.0266 -3.31369
29 1 18.9046 37.4087 15.7454 -3.21795
48 1 21.4151 36.4828 15.0348 -3.27824
129 1 19.4667 39.2579 17.467 -3.14984
116 1 20.4352 36.4033 17.9436 -3.32684
127 1 16.1459 42.7255 17.3276 -3.23727
128 1 22.151 39.837 18.0891 -3.17241
135 1 18.7199 43.6298 18.0952 -3.30652
140 1 21.0399 42.3828 17.0764 -3.23905
114 1 13.0237 37.3266 19.0254 -3.24625
112 1 15.4775 38.5159 19.8966 -3.31449
113 1 17.9451 37.4257 18.9768 -3.37663
122 1 17.9764 39.6274 20.952 -3.37081
120 1 20.4493 38.5003 20.0111 -3.35496
110 1 12.9979 39.6278 20.8846 -3.34805
118 2 15.5007 40.7608 21.829 -3.37887
119 1 14.6442 43.3708 20.8832 -3.37192
123 1 17.1151 40.2803 18.4494 -3.16606
124 1 17.1244 42.3538 20.0765 -3.34061
126 1 14.5951 41.1468 19.103 -3.31325
121 2 20.4609 40.7608 21.829 -3.36957
125 1 19.6494 41.2021 19.2411 -3.27463
132 1 22.0947 42.2225 19.952 -3.37332
134 1 19.6342 43.3851 20.935 -3.34569
139 1 23.6318 43.7619 18.1321 -3.32557
130 2 17.1541 44.458 21.829 -3.34838
131 1 16.3225 47.0404 20.8942 -3.35074
138 1 16.2654 44.8974 19.0294 -3.35485
136 1 18.7783 45.8834 19.9512 -3.36323
133 2 22.1143 44.458 21.829 -3.35513
137 1 21.2214 44.7611 19.01 -3.3409
141 2 18.8075 48.1551 21.829 -3.35901
144 1 21.2688 47.03 20.8585 -3.35998
142 1 23.7488 45.9781 19.9377 -3.34438
143 2 23.7677 48.1551 21.829 -3.35679
