LAMMPS (29 Aug 2024 - Update 2)
#---------------------------------------------------------------------------------------------------
# Initilise important features of simulation
#---------------------------------------------------------------------------------------------------
units 		metal	# Use metals units (Ang, ps, eV, bar, etc.)
dimension 	3		# Run the simulation in three dimensions
boundary 	p p p	# Use periodic boundaries in all three dimensions
atom_style 	atomic	#
#box tilt large		# Allow larger than normal tilt factors

variable T_start equal 600
variable T_end equal 200
variable tstep equal 0.002
timestep ${tstep}
timestep 0.002

read_data   lammps.txt	# Read in atom coordinates from a file
Reading data file ...
  triclinic box = (0 0 0) to (9.9204335 11.091382 22.734581) with tilt (4.9602167 13.640596 32.165007)
WARNING: Triclinic box skew is large. LAMMPS will run inefficiently. (src/domain.cpp:221)
  1 by 1 by 1 MPI processor grid
  reading atoms ...
  144 atoms
  read_data CPU = 0.001 seconds

#---------------------------------------------------------------------------------------------------
# Define how the forces between the atoms will be modelled
#---------------------------------------------------------------------------------------------------
pair_style eam/alloy
pair_coeff * * Zope-Ti-Al-2003.eam.alloy.txt Al Al

#---------------------------------------------------------------------------------------------------
# Set behaviour of simulation
#---------------------------------------------------------------------------------------------------
group g_fixed type 2
36 atoms in group g_fixed
group g_other type 1
108 atoms in group g_other
fix f_freeze g_fixed setforce 0.0 0.0 0.0 	# Hold atoms of type 2 fixed in place
#fix f_constrain g_other setforce 0.0 0.0 NULL 	# All atoms of type 1 to move only in z direction

#---------------------------------------------------------------------------------------------------
# Specify what information to write out
#---------------------------------------------------------------------------------------------------
thermo_style custom step atoms temp pe ke etotal fmax
thermo_modify format 6 %20.10f
thermo 1000

#compute statom all stress/atom NULL
compute peatom all pe/atom
dump 1 all custom 100000 dump.* id type x y z c_peatom
dump_modify 1 first yes


#---------------------------------------------------------------------------------------------------
# Initial relaxation
#---------------------------------------------------------------------------------------------------
velocity all set 0.0 0.0 0.0

min_style 	cg
min_modify dmax 0.1
minimize 	0.0 1.0e-6 10000 100000
Neighbor list info ...
  update: every = 1 steps, delay = 0 steps, check = yes
  max neighbors/atom: 2000, page size: 100000
  master list distance cutoff = 8.724884
  ghost atom cutoff = 8.724884
  binsize = 4.362442, bins = 7 10 6
  1 neighbor lists, perpetual/occasional/extra = 1 0 0
  (1) pair eam/alloy, perpetual
      attributes: half, newton on
      pair build: half/bin/atomonly/newton/tri
      stencil: half/bin/3d/tri
      bin: standard
Per MPI rank memory allocation (min/avg/max) = 4.675 | 4.675 | 4.675 Mbytes
   Step        Atoms         Temp          PotEng         KinEng         TotEng          Fmax     
         0         144   0             -449.25754      0                  -449.2575395908  7.3641394    
       103         144   0             -476.02484      0                  -476.0248431721  1.7716544e-07
Loop time of 0.0180607 on 1 procs for 103 steps with 144 atoms

99.5% CPU use with 1 MPI tasks x no OpenMP threads

Minimization stats:
  Stopping criterion = force tolerance
  Energy initial, next-to-last, final = 
     -449.257539590767  -476.024843172054  -476.024843172051
  Force two-norm initial, final = 28.88163 8.9962826e-07
  Force max component initial, final = 7.3641394 1.7716544e-07
  Final line search alpha, max atom move = 1 1.7716544e-07
  Iterations, force evaluations = 103 196

MPI task timing breakdown:
Section |  min time  |  avg time  |  max time  |%varavg| %total
---------------------------------------------------------------
Pair    | 0.016008   | 0.016008   | 0.016008   |   0.0 | 88.64
Neigh   | 0.00049896 | 0.00049896 | 0.00049896 |   0.0 |  2.76
Comm    | 0.00091247 | 0.00091247 | 0.00091247 |   0.0 |  5.05
Output  | 0          | 0          | 0          |   0.0 |  0.00
Modify  | 2.9e-05    | 2.9e-05    | 2.9e-05    |   0.0 |  0.16
Other   |            | 0.0006121  |            |       |  3.39

Nlocal:            144 ave         144 max         144 min
Histogram: 1 0 0 0 0 0 0 0 0 0
Nghost:           2676 ave        2676 max        2676 min
Histogram: 1 0 0 0 0 0 0 0 0 0
Neighs:          11542 ave       11542 max       11542 min
Histogram: 1 0 0 0 0 0 0 0 0 0

Total # of neighbors = 11542
Ave neighs/atom = 80.152778
Neighbor list builds = 1
Dangerous builds = 0
#---------------------------------------------------------------------------------------------------
# Anneal boundary structures
#---------------------------------------------------------------------------------------------------
reset_timestep 100000
fix md g_other nvt temp ${T_start} ${T_end} $(100.0*v_tstep)
fix md g_other nvt temp 600 ${T_end} $(100.0*v_tstep)
fix md g_other nvt temp 600 200 $(100.0*v_tstep)
fix md g_other nvt temp 600 200 0.2000000000000000111

velocity all create ${T_start} 4928459 rot yes mom yes dist gaussian
velocity all create 600 4928459 rot yes mom yes dist gaussian
run 10000
Per MPI rank memory allocation (min/avg/max) = 4.932 | 4.932 | 4.932 Mbytes
   Step        Atoms         Temp          PotEng         KinEng         TotEng          Fmax     
    100000         144   600           -476.02484      11.09052           -464.9343227311  1.7716544e-07
    101000         144   590.27062     -468.3986       10.910681          -457.4879232528  1.2178943    
    102000         144   591.74891     -468.14206      10.938006          -457.2040553347  1.2598637    
    103000         144   504.50113     -469.09898      9.3253002          -459.7736781083  1.1361293    
    104000         144   568.58462     -469.22367      10.509832          -458.7138411520  1.2584343    
    105000         144   494.66782     -469.75487      9.1435393          -460.6113349498  1.2380518    
    106000         144   467.14126     -470.36293      8.6347329          -461.7281930051  1.2145376    
    107000         144   439.2252      -471.75612      8.1187268          -463.6373942330  1.1140631    
    108000         144   398.0442      -472.18748      7.3575288          -464.8299528455  1.0015097    
    109000         144   378.8119      -473.10504      7.0020352          -466.1030087530  0.86630958   
    110000         144   317.41998     -473.11048      5.8672546          -467.2432204722  0.74885271   
Loop time of 0.890667 on 1 procs for 10000 steps with 144 atoms

Performance: 1940.119 ns/day, 0.012 hours/ns, 11227.540 timesteps/s, 1.617 Matom-step/s
99.8% CPU use with 1 MPI tasks x no OpenMP threads

MPI task timing breakdown:
Section |  min time  |  avg time  |  max time  |%varavg| %total
---------------------------------------------------------------
Pair    | 0.77957    | 0.77957    | 0.77957    |   0.0 | 87.53
Neigh   | 0.041011   | 0.041011   | 0.041011   |   0.0 |  4.60
Comm    | 0.047544   | 0.047544   | 0.047544   |   0.0 |  5.34
Output  | 5.0541e-05 | 5.0541e-05 | 5.0541e-05 |   0.0 |  0.01
Modify  | 0.010878   | 0.010878   | 0.010878   |   0.0 |  1.22
Other   |            | 0.01161    |            |       |  1.30

Nlocal:            144 ave         144 max         144 min
Histogram: 1 0 0 0 0 0 0 0 0 0
Nghost:           2641 ave        2641 max        2641 min
Histogram: 1 0 0 0 0 0 0 0 0 0
Neighs:          11520 ave       11520 max       11520 min
Histogram: 1 0 0 0 0 0 0 0 0 0

Total # of neighbors = 11520
Ave neighs/atom = 80
Neighbor list builds = 85
Dangerous builds = 0
unfix md

#---------------------------------------------------------------------------------------------------
# Final relaxation
#---------------------------------------------------------------------------------------------------
velocity all set 0.0 0.0 0.0

min_style 	cg
min_modify dmax 0.1
minimize 	0.0 1.0e-6 10000 100000
Per MPI rank memory allocation (min/avg/max) = 6.057 | 6.057 | 6.057 Mbytes
   Step        Atoms         Temp          PotEng         KinEng         TotEng          Fmax     
    110000         144   0             -473.11048      0                  -473.1104750315  0.74885271   
    110086         144   0             -476.02484      0                  -476.0248431721  1.5953906e-07
Loop time of 0.0154345 on 1 procs for 86 steps with 144 atoms

98.9% CPU use with 1 MPI tasks x no OpenMP threads

Minimization stats:
  Stopping criterion = force tolerance
  Energy initial, next-to-last, final = 
     -473.110475031461  -476.024843172055  -476.024843172052
  Force two-norm initial, final = 4.7234564 9.9076676e-07
  Force max component initial, final = 0.74885271 1.5953906e-07
  Final line search alpha, max atom move = 1 1.5953906e-07
  Iterations, force evaluations = 86 171

MPI task timing breakdown:
Section |  min time  |  avg time  |  max time  |%varavg| %total
---------------------------------------------------------------
Pair    | 0.013976   | 0.013976   | 0.013976   |   0.0 | 90.55
Neigh   | 0          | 0          | 0          |   0.0 |  0.00
Comm    | 0.00078163 | 0.00078163 | 0.00078163 |   0.0 |  5.06
Output  | 0          | 0          | 0          |   0.0 |  0.00
Modify  | 2.5507e-05 | 2.5507e-05 | 2.5507e-05 |   0.0 |  0.17
Other   |            | 0.0006513  |            |       |  4.22

Nlocal:            144 ave         144 max         144 min
Histogram: 1 0 0 0 0 0 0 0 0 0
Nghost:           2663 ave        2663 max        2663 min
Histogram: 1 0 0 0 0 0 0 0 0 0
Neighs:          11519 ave       11519 max       11519 min
Histogram: 1 0 0 0 0 0 0 0 0 0

Total # of neighbors = 11519
Ave neighs/atom = 79.993056
Neighbor list builds = 0
Dangerous builds = 0

Total wall time: 0:00:00
