#Lammps coordinate file for CSL - Axis: [1 1 1]  Angle: (1, 3) -> 59.99999999999999  Plane indices: [0 1 1]  z-position: [5.1836451853244885 15.550935555973464]  Repeats: 1 1 (3, 3) (black, white)  Fixed: 2.228  Boundary equiv: True
144 atoms

2 atom types

0.0 9.920433458271871 xlo xhi
0.0 11.091381789479609 ylo yhi
0.0 20.734580741297954 zlo zhi
4.9602167291359365 10.540460549413869 36.32427536054573 xy xz yz

Atoms

1 1 7.750338639274901 12.616446785533057 5.839252716211904
2 1 12.710555368410834 12.616446785533057 5.839252716211904
3 1 10.230447003842869 13.725584964481017 6.74486024709932
4 1 12.710555368410834 14.83472314342898 7.650467777986734
5 1 16.017366521168125 16.313574048692928 5.839252716211904
6 1 7.750338639274901 14.83472314342898 7.650467777986734
7 1 5.270230274706933 15.943861322376941 8.55607530887415
8 2 7.750338639274901 17.0529995013249 9.461682839761563
9 1 5.270230274706933 13.725584964481019 6.744860247099319
10 2 12.710555368410834 17.0529995013249 9.461682839761563
11 2 10.230447003842869 18.162137680272863 10.367290370648979
12 2 12.710555368410835 19.27127585922082 11.272897901536393
13 1 10.230447003842869 15.943861322376941 8.55607530887415
14 1 11.057149792032188 16.313574048692928 5.839252716211904
15 1 8.577041427464223 17.422712227640886 6.744860247099319
16 1 11.05714979203219 18.531850406588852 7.650467777986734
17 1 16.017366521168125 18.53185040658885 7.650467777986734
18 1 13.53725815660016 19.64098858553681 8.55607530887415
19 2 16.017366521168128 20.75012676448477 9.461682839761563
20 1 13.537258156600156 17.422712227640886 6.74486024709932
21 1 14.363960944789483 20.0107013118528 5.839252716211903
22 1 16.84406930935745 21.119839490800757 6.744860247099318
23 2 7.750338639274902 19.27127585922082 11.272897901536393
24 1 5.270230274706934 20.380414038168787 12.178505432423808
25 1 7.750338639274902 21.489552217116746 13.084112963311222
26 2 5.270230274706934 18.162137680272863 10.367290370648979
27 1 12.710555368410837 21.489552217116746 13.084112963311222
28 1 10.230447003842869 22.598690396064704 13.989720494198638
29 1 12.710555368410837 23.70782857501267 14.895328025086053
30 1 10.230447003842869 20.380414038168787 12.178505432423808
31 2 11.057149792032192 20.750126764484772 9.461682839761563
32 2 8.577041427464223 21.859264943432734 10.367290370648979
33 2 11.057149792032192 22.968403122380693 11.272897901536393
34 1 8.577041427464223 19.64098858553681 8.55607530887415
35 1 9.403744215653546 20.0107013118528 5.839252716211903
36 1 9.403744215653546 22.228977669748723 7.650467777986734
37 2 16.017366521168128 22.968403122380693 11.272897901536393
38 1 13.53725815660016 24.077541301328658 12.178505432423808
39 1 16.017366521168128 25.186679480276617 13.084112963311224
40 2 13.53725815660016 21.859264943432734 10.367290370648979
41 1 14.363960944789483 22.228977669748716 7.650467777986734
42 1 11.883852580221514 23.33811584869668 8.55607530887415
43 2 14.363960944789483 24.44725402764464 9.461682839761563
44 1 11.883852580221514 21.119839490800757 6.744860247099319
45 2 16.84406930935745 25.556392206592605 10.367290370648977
46 1 16.84406930935745 23.33811584869668 8.55607530887415
47 1 7.7503386392749025 23.70782857501267 14.895328025086052
48 1 5.270230274706935 22.59869039606471 13.989720494198638
49 1 11.057149792032192 25.186679480276617 13.084112963311222
50 1 8.577041427464227 26.295817659224575 13.989720494198638
51 1 11.057149792032192 27.40495583817254 14.895328025086053
52 1 8.577041427464225 24.077541301328658 12.178505432423808
53 2 9.403744215653546 24.44725402764464 9.461682839761563
54 2 9.403744215653546 26.665530385540563 11.272897901536393
55 1 16.017366521168128 27.40495583817254 14.895328025086052
56 1 13.53725815660016 26.295817659224575 13.98972049419864
57 2 14.363960944789483 26.665530385540563 11.272897901536393
58 1 11.883852580221514 27.77466856448853 12.178505432423808
59 1 14.363960944789483 28.883806743436487 13.084112963311224
60 2 11.883852580221514 25.556392206592605 10.367290370648979
61 1 16.844069309357447 29.992944922384446 13.989720494198636
62 1 16.844069309357447 27.774668564488522 12.178505432423808
63 1 9.403744215653546 28.883806743436487 13.08411296331122
64 1 9.403744215653546 31.10208310133241 14.895328025086052
65 1 14.363960944789483 31.10208310133241 14.89532802508605
66 1 11.883852580221514 29.992944922384446 13.989720494198638
67 1 0.0 2.2182763578959226 1.8112150617748293
68 2 2.480108364567968 1.109138178947961 0.9056075308874145
69 2 4.960216729135936 0.0 -2.220446049250313e-16
70 2 0.0 0.0 0.0
71 1 8.881784197001252e-16 6.654829073687768 5.1836451853244885
72 1 2.480108364567968 3.327414536843884 2.7168225926622442
73 1 2.4801083645679682 5.545690894739806 4.528037654437074
74 1 4.960216729135936 4.436552715791845 3.622430123549659
75 1 8.881784197001252e-16 4.436552715791845 3.622430123549659
76 1 1.6534055763786455 5.915403621055794 1.8112150617748293
77 2 7.440325093703903 1.109138178947961 0.9056075308874145
78 1 7.440325093703903 3.3274145368438837 2.7168225926622442
79 1 4.960216729135936 2.218276357895922 1.8112150617748293
80 2 4.133513940946613 4.806265442107832 0.9056075308874143
81 2 6.61362230551458 3.6971272631598704 -5.551115123125783e-16
82 2 1.6534055763786455 3.697127263159871 -3.885780586188048e-16
83 1 1.6534055763786455 10.351956336847639 5.1836451853244885
84 1 7.440325093703903 5.545690894739806 4.528037654437074
85 1 4.960216729135936 6.654829073687768 5.1836451853244885
86 1 4.133513940946613 7.024541800003755 2.7168225926622442
87 1 4.133513940946613 9.242818157899677 4.528037654437074
88 1 6.61362230551458 8.133679978951715 3.622430123549659
89 1 1.6534055763786455 8.133679978951717 3.622430123549659
90 1 3.3068111527572905 9.612530884215664 1.8112150617748288
91 2 9.093730670082548 4.806265442107832 0.9056075308874141
92 1 9.093730670082547 7.024541800003755 2.7168225926622442
93 1 6.61362230551458 5.915403621055793 1.8112150617748288
94 2 5.7869195173252574 8.503392705267704 0.9056075308874139
95 2 8.267027881893226 7.394254526319742 -9.992007221626409e-16
96 2 3.3068111527572905 7.394254526319742 -7.771561172376096e-16
97 1 3.306811152757291 14.04908360000751 5.183645185324488
98 1 9.093730670082547 9.242818157899677 4.528037654437074
99 1 6.613622305514581 10.351956336847639 5.1836451853244885
100 1 5.786919517325258 10.721669063163626 2.7168225926622434
101 1 5.786919517325258 12.939945421059548 4.528037654437073
102 1 8.267027881893226 11.830807242111586 3.622430123549659
103 1 3.306811152757291 11.830807242111588 3.622430123549659
104 2 10.747136246461192 8.503392705267704 0.9056075308874136
105 1 10.747136246461192 10.721669063163626 2.7168225926622434
106 1 8.267027881893226 9.612530884215664 1.8112150617748284
107 1 10.540460549413865 29.669446286857962 15.550935555973467
108 1 10.747136246461192 12.939945421059548 4.528037654437073
109 1 8.267027881893226 14.04908360000751 5.183645185324488
110 1 10.540460549413865 34.1059990026498 18.923365679523123
111 1 13.020568913981831 30.77858446580592 16.20654308686088
112 1 13.020568913981833 32.996860823701844 18.01775814863571
113 1 15.500677278549801 31.887722644753886 17.112150617748295
114 1 10.540460549413865 31.887722644753886 17.112150617748295
115 1 12.19386612579251 33.36657355001783 15.550935555973464
116 1 17.980785643117766 30.77858446580592 16.20654308686088
117 1 15.500677278549801 29.669446286857962 15.550935555973464
118 2 13.020568913981833 35.21513718159777 19.82897321041054
119 1 12.19386612579251 37.803126265809674 18.923365679523123
120 1 17.980785643117766 32.996860823701844 18.017758148635707
121 2 17.98078564311777 35.21513718159777 19.82897321041054
122 1 15.500677278549801 34.1059990026498 18.923365679523126
123 1 14.673974490360479 34.47571172896579 16.20654308686088
124 1 14.673974490360479 36.693988086861715 18.01775814863571
125 1 17.154082854928447 35.58484990791376 17.112150617748295
126 1 12.19386612579251 35.58484990791376 17.112150617748295
127 1 13.847271702171156 37.063700813177704 15.550935555973464
128 1 19.634191219496415 34.47571172896579 16.20654308686088
129 1 17.154082854928447 33.36657355001783 15.550935555973464
130 2 14.673974490360479 38.91226444475764 19.82897321041054
131 1 13.847271702171156 41.500253528969544 18.923365679523123
132 1 19.634191219496415 36.693988086861715 18.017758148635707
133 2 19.634191219496415 38.91226444475764 19.82897321041054
134 1 17.154082854928447 37.803126265809674 18.923365679523126
135 1 16.327380066739124 38.17283899212566 16.20654308686088
136 1 16.327380066739124 40.391115350021586 18.01775814863571
137 1 18.807488431307092 39.28197717107363 17.112150617748295
138 1 13.847271702171156 39.28197717107363 17.112150617748295
139 1 21.28759679587506 38.17283899212566 16.20654308686088
140 1 18.807488431307092 37.063700813177704 15.550935555973464
141 2 16.327380066739124 42.60939170791751 19.82897321041054
142 1 21.28759679587506 40.391115350021586 18.017758148635707
143 2 21.28759679587506 42.60939170791751 19.82897321041054
144 1 18.807488431307092 41.500253528969544 18.923365679523126
