ITEM: TIMESTEP
110173
ITEM: NUMBER OF ATOMS
144
ITEM: BOX BOUNDS xy xz yz pp pp pp
0.0000000000000000e+00 2.5421110736821674e+01 4.9602167291359365e+00
0.0000000000000000e+00 5.0188502597395242e+01 1.0540460549413869e+01
0.0000000000000000e+00 2.0734580741297954e+01 3.9097120807915630e+01
ITEM: ATOMS id type x y z c_peatom
69 2 4.96022 0 0 -3.33191
70 2 0 0 0 -3.33129
81 2 6.61362 3.69713 0 -3.30626
82 2 11.5738 3.69713 0 -3.3074
80 2 4.13351 4.80627 0.905608 -3.29961
86 1 4.27929 6.75782 2.58649 -3.29879
87 1 4.44961 8.77964 4.26095 -3.32602
88 1 6.87941 7.92079 3.3589 -3.24883
91 2 9.09373 4.80627 0.905608 -3.29962
92 1 9.23292 6.76297 2.60623 -3.30894
93 1 6.67642 5.87572 1.55602 -3.23585
94 2 5.78692 8.50339 0.905608 -3.32992
95 2 8.26703 7.39425 0 -3.32279
98 1 9.39675 8.80745 4.25479 -3.31402
76 1 11.6181 5.83363 1.61884 -3.27031
89 1 11.8289 7.85854 3.38022 -3.27963
96 2 13.2272 7.39425 0 -3.30515
104 2 10.7471 8.50339 0.905608 -3.32091
68 2 7.44033 12.2005 0.905608 -3.3485
79 1 9.87408 13.2305 1.72515 -3.30774
100 1 5.98486 10.5211 2.56045 -3.25511
101 1 6.09108 12.4627 4.33118 -3.20961
102 1 8.52476 11.5927 3.5525 -3.33947
106 1 8.35949 9.52655 1.69735 -3.30176
99 1 6.95985 9.76126 5.19049 -3.31153
67 1 14.8286 13.2241 1.74675 -3.32076
77 2 12.4005 12.2005 0.905608 -3.36963
90 1 13.3154 9.44608 1.65863 -3.26376
103 1 13.519 11.3641 3.37207 -3.21368
105 1 10.8893 10.4837 2.54437 -3.24867
108 1 11.2538 12.3935 4.14957 -3.15276
72 1 7.25449 14.3219 2.66861 -3.29033
73 1 6.47653 16.4532 4.2446 -3.05217
74 1 9.53991 14.9771 3.7601 -3.18864
75 1 14.4512 15.0679 3.69072 -3.13788
78 1 12.2264 14.3722 2.64503 -3.28966
84 1 11.3936 16.592 4.10194 -3.0286
109 1 9.51556 13.1028 5.64238 -2.92755
97 1 13.7704 13.0278 5.33714 -2.96713
9 1 5.03791 15.2538 6.6687 -3.35487
85 1 8.74263 17.2269 5.17419 -3.2659
7 1 5.22218 17.3857 8.58146 -3.35486
1 1 7.42782 14.4642 5.71989 -3.19595
6 1 7.60948 16.3931 7.66546 -3.31217
3 1 9.99398 15.4456 6.82417 -3.26474
71 1 13.6996 17.2104 5.1949 -3.27023
13 1 10.1895 17.4328 8.62945 -3.33383
2 1 12.0864 14.6506 5.63739 -3.13055
4 1 12.6284 16.3764 7.69785 -3.31725
5 1 6.16759 18.2329 6.06937 -3.25657
8 2 7.75034 18.4394 9.46168 -3.33722
15 1 8.62987 19.1414 6.94004 -3.28945
34 1 8.57733 21.1314 8.69334 -3.32103
35 1 9.49115 21.7064 6.14187 -3.27685
14 1 11.141 18.1863 6.09119 -3.27071
10 2 12.7106 18.4394 9.46168 -3.33708
16 1 11.1054 20.1267 7.80957 -3.26753
18 1 13.5323 21.1065 8.70453 -3.32774
20 1 13.5827 19.1257 6.93951 -3.28768
21 1 14.4419 21.6636 6.15444 -3.25418
31 2 11.0571 22.1365 9.46168 -3.31578
83 1 16.9027 20.8465 5.18177 -3.33386
17 1 16.0646 20.1273 7.81849 -3.26082
19 2 16.0174 22.1365 9.46168 -3.30871
22 1 16.8394 22.8513 6.8934 -3.36684
36 1 9.44591 23.7312 7.87091 -3.21627
53 2 9.40374 25.8337 9.46168 -3.33979
44 1 12.0074 22.8595 6.88445 -3.31607
41 1 14.3822 23.7095 8.00618 -3.0999
42 1 11.8668 24.8795 8.59075 -3.30461
43 2 14.364 25.8337 9.46168 -3.34092
46 1 16.8441 24.8848 8.56305 -3.30986
32 2 8.57704 23.2457 10.3673 -3.32576
52 1 8.5586 25.2819 12.2161 -3.31119
50 1 8.52824 27.4574 13.7198 -3.24827
33 2 11.0571 24.3548 11.2729 -3.33516
38 1 13.5175 25.2804 12.2208 -3.313
40 2 13.5373 23.2457 10.3673 -3.29403
49 1 10.9854 26.4691 12.8365 -3.21861
60 2 11.8839 26.9428 10.3673 -3.33211
56 1 13.4872 27.4595 13.7172 -3.24733
37 2 16.0174 24.3548 11.2729 -3.33508
39 1 15.9468 26.4694 12.8398 -3.21722
45 2 16.8441 26.9428 10.3673 -3.32808
54 2 9.40374 28.052 11.2729 -3.29416
63 1 9.37086 30.1025 12.918 -3.27467
11 2 15.1907 30.6399 10.3673 -3.36109
23 2 12.7106 31.7491 11.2729 -3.32805
26 2 10.2304 30.6399 10.3673 -3.37181
51 1 10.9763 28.4989 14.5926 -3.27319
57 2 14.364 28.052 11.2729 -3.29202
58 1 11.8758 29.0892 12.025 -3.33251
59 1 14.3305 30.102 12.9171 -3.27626
66 1 11.8511 31.056 13.8153 -3.29809
12 2 17.6708 31.7491 11.2729 -3.32895
55 1 15.9367 28.4993 14.5944 -3.27279
61 1 16.8118 31.056 13.8156 -3.29694
62 1 16.8363 29.0894 12.0262 -3.33302
65 1 14.3158 32.036 14.6536 -3.26985
25 1 12.828 33.769 13.009 -3.2693
47 1 13.2721 35.3356 15.1221 -3.07216
30 1 15.2524 32.8055 12.1357 -3.35999
107 1 11.7909 32.9625 15.5984 -3.31447
64 1 19.2757 32.0388 14.6529 -3.27042
28 1 15.537 34.926 14.0035 -3.3231
27 1 17.7866 33.7694 13.0035 -3.26735
29 1 18.2301 35.3331 15.1206 -3.07315
24 1 20.2143 32.807 12.1356 -3.36374
117 1 16.7502 32.9631 15.5959 -3.31382
48 1 20.4984 34.9264 14.0071 -3.32285
127 1 8.54131 29.3364 15.539 -3.30988
111 1 14.155 33.5455 16.6953 -2.95533
112 1 13.1962 35.8632 18.0199 -3.335
114 1 10.9063 35.2659 16.9186 -3.15549
113 1 15.8669 35.2675 16.9186 -3.15698
116 1 19.1122 33.5459 16.6961 -2.95525
120 1 18.1557 35.8657 18.0188 -3.33403
115 1 11.8008 37.199 15.283 -2.96952
110 1 10.5834 36.9601 18.9815 -3.30331
118 2 13.0206 37.988 19.829 -3.35213
119 1 12.1148 40.6968 19.0683 -3.2763
123 1 14.3953 37.7211 16.2902 -3.33605
124 1 14.5359 39.6331 18.1514 -3.30468
126 1 12.0009 38.7257 17.3239 -3.26653
140 1 18.4613 40.4279 15.538 -3.30971
129 1 16.7595 37.1985 15.2789 -2.97127
121 2 17.9808 37.988 19.829 -3.35162
122 1 15.5436 36.9624 18.9818 -3.30445
125 1 16.9612 38.725 17.3219 -3.26691
128 1 19.3549 37.7198 16.2862 -3.33539
132 1 19.4958 39.6327 18.1481 -3.30338
134 1 17.0733 40.6968 19.0671 -3.27293
130 2 14.674 41.6851 19.829 -3.34317
131 1 13.7802 44.3246 19.1872 -3.21433
138 1 13.5908 42.2484 17.3828 -3.23581
135 1 16.0239 41.3901 16.4841 -3.31251
133 2 19.6342 41.6851 19.829 -3.34725
136 1 16.2077 43.4065 18.171 -3.29239
137 1 18.5508 42.2485 17.3818 -3.23553
141 2 16.3274 45.3822 19.829 -3.28427
144 1 18.7394 44.3226 19.1886 -3.21603
139 1 20.9847 41.3905 16.4853 -3.31263
142 1 21.1697 43.4078 18.1696 -3.29105
143 2 21.2876 45.3822 19.829 -3.29337
