ITEM: TIMESTEP
63
ITEM: NUMBER OF ATOMS
144
ITEM: BOX BOUNDS xy xz yz pp pp pp
0.0000000000000000e+00 2.8521246192531635e+01 4.9602167291359365e+00
0.0000000000000000e+00 4.0483543531600581e+01 1.3640596005123829e+01
0.0000000000000000e+00 2.0734580741297954e+01 2.9392161742120972e+01
ITEM: ATOMS id type x y z c_peatom
70 2 0 0 0 -3.29362
82 2 1.65341 3.69713 0 -3.33094
69 2 4.96022 0 0 -3.29362
81 2 6.61362 3.69713 0 -3.33094
80 2 4.13351 4.80627 0.905608 -3.33624
86 1 4.22261 7.04553 2.47025 -3.31042
88 1 6.76056 8.18388 3.22602 -3.18903
91 2 9.09373 4.80627 0.905608 -3.33624
92 1 9.18282 7.04553 2.47025 -3.31042
93 1 6.65128 5.9168 1.65844 -3.33157
94 2 5.78692 8.50339 0.905608 -3.34145
95 2 8.26703 7.39425 0 -3.33094
76 1 11.6115 5.9168 1.65844 -3.33157
89 1 11.7208 8.18388 3.22602 -3.18903
96 2 13.2272 7.39425 0 -3.33094
104 2 10.7471 8.50339 0.905608 -3.34145
68 2 7.44033 12.2005 0.905608 -3.30333
98 1 9.1666 9.33762 3.89051 -3.06599
100 1 5.7982 10.868 2.48575 -3.25621
102 1 8.31528 11.9919 3.467 -3.31102
106 1 8.25478 9.69794 1.5891 -3.25961
77 2 12.4005 12.2005 0.905608 -3.30333
79 1 9.92322 13.3959 1.72441 -3.32014
87 1 14.1268 9.33762 3.89051 -3.06599
90 1 13.215 9.69794 1.5891 -3.25961
103 1 13.2755 11.9919 3.467 -3.31102
105 1 10.7584 10.868 2.48575 -3.25621
108 1 10.7478 13.0588 4.38006 -3.31726
67 1 14.8834 13.3959 1.72441 -3.32014
101 1 15.708 13.0588 4.38006 -3.31726
72 1 7.46663 14.5056 2.6309 -3.3324
109 1 8.31648 14.6766 5.18981 -3.1538
74 1 10.0774 15.6793 3.48058 -3.32954
78 1 12.4269 14.5056 2.6309 -3.3324
84 1 12.5904 16.9602 4.23994 -3.19076
97 1 13.2767 14.6766 5.18981 -3.1538
73 1 17.5506 16.9602 4.23994 -3.19076
75 1 15.0376 15.6793 3.48058 -3.32954
2 1 4.32486 9.32439 6.35232 -3.10982
1 1 9.28508 9.32439 6.35232 -3.10982
5 1 7.8942 12.3903 6.12807 -3.1394
6 1 9.38176 11.3606 7.95471 -3.18352
7 1 6.86998 12.4744 8.73521 -3.34699
9 1 6.87233 10.1802 7.24927 -2.99422
99 1 6.67451 10.228 4.84206 -3.1056
3 1 11.8325 10.1802 7.24927 -2.99422
13 1 11.8302 12.4744 8.73521 -3.34699
14 1 12.8544 12.3903 6.12807 -3.1394
83 1 11.6347 10.228 4.84206 -3.1056
4 1 14.342 11.3606 7.95471 -3.18352
8 2 9.30041 13.5869 9.46168 -3.32252
17 1 7.73672 14.9643 7.76529 -3.31923
22 1 8.35856 17.5411 6.83395 -3.30567
10 2 14.2606 13.5869 9.46168 -3.32252
15 1 10.293 13.6911 6.931 -3.19068
16 1 12.6969 14.9643 7.76529 -3.31923
31 2 12.6072 17.2841 9.46168 -3.32899
34 1 10.1211 16.1193 8.65516 -3.33184
35 1 10.8291 16.0238 6.09303 -3.16147
44 1 13.3188 17.5411 6.83395 -3.30567
85 1 10.1976 18.2175 5.01615 -3.0948
18 1 15.0813 16.1193 8.65516 -3.33184
19 2 17.5674 17.2841 9.46168 -3.32899
20 1 15.2532 13.6911 6.931 -3.19068
21 1 15.7893 16.0238 6.09303 -3.16147
71 1 15.1578 18.2175 5.01615 -3.0948
36 1 10.9173 18.6263 7.70117 -3.33941
42 1 13.431 19.772 8.74956 -3.27091
53 2 10.9538 20.9812 9.46168 -3.24608
41 1 15.8775 18.6263 7.70117 -3.33941
43 2 15.914 20.9812 9.46168 -3.24608
46 1 18.3913 19.772 8.74956 -3.27091
32 2 10.1271 18.3932 10.3673 -3.35311
33 2 12.6072 19.5023 11.2729 -3.24608
49 1 12.6437 21.8573 13.0334 -3.33941
52 1 10.13 20.7116 11.985 -3.27091
60 2 13.4339 22.0903 10.3673 -3.35311
37 2 17.5674 19.5023 11.2729 -3.24608
38 1 15.0902 20.7116 11.985 -3.27091
39 1 17.604 21.8573 13.0334 -3.33941
40 2 15.0873 18.3932 10.3673 -3.35311
45 2 18.3941 22.0903 10.3673 -3.35311
26 2 11.7805 25.7875 10.3673 -3.33924
51 1 12.7319 24.4598 14.6416 -3.16147
54 2 10.9538 23.1995 11.2729 -3.32899
58 1 13.4399 24.3643 12.0794 -3.33184
66 1 13.2681 26.7924 13.8036 -3.19068
11 2 16.7407 25.7875 10.3673 -3.33924
23 2 14.2606 26.8966 11.2729 -3.32252
55 1 17.6921 24.4598 14.6416 -3.16147
56 1 15.2025 22.9424 13.9006 -3.30567
57 2 15.914 23.1995 11.2729 -3.32899
59 1 15.8243 25.5192 12.9693 -3.31923
61 1 18.2283 26.7924 13.8036 -3.19068
62 1 18.4001 24.3643 12.0794 -3.33184
12 2 19.2208 26.8966 11.2729 -3.32252
50 1 20.1627 22.9424 13.9006 -3.30567
63 1 20.7845 25.5192 12.9693 -3.31923
25 1 14.1793 29.123 12.7799 -3.18352
28 1 16.6887 30.3034 13.4853 -2.99422
30 1 16.6911 28.0091 11.9994 -3.34699
65 1 15.6668 28.0932 14.6065 -3.1394
24 1 21.6513 28.0091 11.9994 -3.34699
27 1 19.1395 29.123 12.7799 -3.18352
29 1 19.2362 31.1591 14.3823 -3.10982
48 1 21.6489 30.3034 13.4853 -2.99422
64 1 20.627 28.0932 14.6065 -3.1394
47 1 24.1964 31.1591 14.3823 -3.10982
107 1 13.3634 22.266 15.7184 -3.0948
114 1 13.4836 24.8043 17.254 -3.32954
116 1 10.9707 23.5234 16.4946 -3.19076
111 1 15.9309 23.5234 16.4946 -3.19076
112 1 16.0944 25.978 18.1037 -3.3324
113 1 18.4438 24.8043 17.254 -3.32954
115 1 15.2445 25.807 15.5448 -3.1538
117 1 18.3236 22.266 15.7184 -3.0948
120 1 21.0546 25.978 18.1037 -3.3324
129 1 20.2048 25.807 15.5448 -3.1538
110 1 13.6378 27.0877 19.0102 -3.32014
128 1 12.8133 27.4248 16.3545 -3.31726
118 2 16.1207 28.283 19.829 -3.30333
119 1 15.3063 30.7856 19.1455 -3.25961
122 1 18.598 27.0877 19.0102 -3.32014
123 1 17.7735 27.4248 16.3545 -3.31726
124 1 17.7628 29.6156 18.2488 -3.25621
126 1 15.2458 28.4917 17.2676 -3.31102
127 1 16.8865 30.2556 15.8925 -3.1056
139 1 14.3944 31.1459 16.8441 -3.06599
121 2 21.0809 28.283 19.829 -3.30333
125 1 20.206 28.4917 17.2676 -3.31102
132 1 22.723 29.6156 18.2488 -3.25621
134 1 20.2665 30.7856 19.1455 -3.25961
135 1 19.3546 31.1459 16.8441 -3.06599
140 1 21.8467 30.2556 15.8925 -3.1056
130 2 17.7741 31.9802 19.829 -3.34145
131 1 16.9097 34.5667 19.0761 -3.33157
138 1 16.8005 32.2997 17.5086 -3.18903
133 2 22.7343 31.9802 19.829 -3.34145
136 1 19.3384 33.438 18.2643 -3.31042
137 1 21.7607 32.2997 17.5086 -3.18903
141 2 19.4275 35.6773 19.829 -3.33624
144 1 21.87 34.5667 19.0761 -3.33157
142 1 24.2986 33.438 18.2643 -3.31042
143 2 24.3877 35.6773 19.829 -3.33624
