#Lammps coordinate file for CSL - Axis: [1 1 1]  Angle: (1, 3) -> 59.99999999999999  Plane indices: [0 1 1]  z-position: [5.9336451853244885 17.800935555973464]  Repeats: 1 1 (3, 3) (black, white)  Fixed: 2.228  Boundary equiv: True
144 atoms

2 atom types

0.0 9.920433458271871 xlo xhi
0.0 11.091381789479609 ylo yhi
0.0 23.734580741297954 zlo zhi
4.9602167291359365 3.100135455709965 28.00573901843602 xy xz yz

Atoms

1 1 4.030176092422949 8.457178614478204 7.339252716211904
2 1 8.990392821558881 8.457178614478202 7.339252716211904
3 1 6.510284456990917 9.566316793426164 8.24486024709932
4 1 8.990392821558883 10.675454972374126 9.150467777986734
5 1 12.297203974316174 12.154305877638073 7.339252716211904
6 1 4.030176092422948 10.675454972374126 9.150467777986734
7 1 1.5500677278549817 11.784593151322088 10.05607530887415
8 2 4.030176092422949 12.893731330270048 10.961682839761563
9 1 1.5500677278549817 9.566316793426166 8.244860247099318
10 2 8.990392821558883 12.893731330270048 10.961682839761563
11 2 6.5102844569909175 14.002869509218009 11.867290370648979
12 2 8.990392821558883 15.11200768816597 12.772897901536393
13 1 6.510284456990917 11.784593151322088 10.05607530887415
14 1 7.336987245180238 12.154305877638073 7.339252716211904
15 1 4.856878880612272 13.263444056586035 8.244860247099318
16 1 7.3369872451802385 14.372582235533997 9.150467777986734
17 1 12.297203974316174 14.372582235533995 9.150467777986734
18 1 9.817095609748208 15.481720414481957 10.05607530887415
19 2 12.297203974316176 16.590858593429918 10.961682839761563
20 1 9.817095609748206 13.263444056586035 8.24486024709932
21 1 10.64379839793753 15.851433140797944 7.339252716211903
22 1 13.123906762505499 16.960571319745906 8.244860247099318
23 2 4.03017609242295 15.11200768816597 12.772897901536393
24 1 1.5500677278549826 16.221145867113933 13.678505432423808
25 1 4.03017609242295 17.330284046061895 14.584112963311222
26 2 1.5500677278549826 14.00286950921801 11.867290370648979
27 1 8.990392821558885 17.330284046061895 14.584112963311222
28 1 6.510284456990918 18.439422225009853 15.489720494198638
29 1 8.990392821558885 19.548560403957815 16.39532802508605
30 1 6.510284456990918 16.221145867113933 13.678505432423808
31 2 7.336987245180239 16.590858593429918 10.961682839761563
32 2 4.856878880612273 17.69999677237788 11.867290370648979
33 2 7.336987245180239 18.80913495132584 12.772897901536393
34 1 4.856878880612273 15.48172041448196 10.05607530887415
35 1 5.683581668801594 15.851433140797944 7.339252716211903
36 1 5.683581668801594 18.069709498693868 9.150467777986734
37 2 12.297203974316176 18.80913495132584 12.772897901536393
38 1 9.817095609748208 19.918273130273803 13.678505432423808
39 1 12.297203974316176 21.027411309221765 14.584112963311224
40 2 9.817095609748208 17.69999677237788 11.867290370648979
41 1 10.64379839793753 18.069709498693864 9.150467777986734
42 1 8.163690033369562 19.17884767764183 10.05607530887415
43 2 10.64379839793753 20.28798585658979 10.961682839761563
44 1 8.163690033369562 16.960571319745906 8.244860247099318
45 2 13.123906762505499 21.39712403553775 11.867290370648977
46 1 13.123906762505499 19.178847677641826 10.05607530887415
47 1 4.030176092422951 19.54856040395782 16.39532802508605
48 1 1.5500677278549835 18.439422225009857 15.489720494198638
49 1 7.33698724518024 21.027411309221765 14.584112963311222
50 1 4.856878880612275 22.136549488169724 15.489720494198638
51 1 7.336987245180241 23.245687667117686 16.39532802508605
52 1 4.856878880612274 19.918273130273803 13.678505432423808
53 2 5.683581668801595 20.28798585658979 10.961682839761563
54 2 5.683581668801596 22.506262214485712 12.772897901536393
55 1 12.297203974316176 23.245687667117686 16.39532802508605
56 1 9.817095609748208 22.136549488169724 15.48972049419864
57 2 10.64379839793753 22.506262214485712 12.772897901536393
58 1 8.163690033369564 23.615400393433674 13.678505432423808
59 1 10.643798397937532 24.724538572381636 14.584112963311224
60 2 8.163690033369562 21.39712403553775 11.867290370648979
61 1 13.123906762505497 25.833676751329595 15.489720494198636
62 1 13.123906762505495 23.61540039343367 13.678505432423808
63 1 5.683581668801596 24.724538572381636 14.58411296331122
64 1 5.683581668801596 26.942814930277557 16.39532802508605
65 1 10.643798397937532 26.942814930277557 16.39532802508605
66 1 8.163690033369564 25.833676751329595 15.489720494198638
67 1 2.220446049250313e-16 2.2182763578959226 1.8112150617748295
68 2 2.480108364567968 1.109138178947961 0.9056075308874146
69 2 4.960216729135936 -4.440892098500626e-16 -2.220446049250313e-16
70 2 0.0 0.0 0.0
71 1 4.440892098500626e-16 6.654829073687768 5.9336451853244885
72 1 2.480108364567968 3.327414536843884 2.7168225926622442
73 1 2.4801083645679682 5.545690894739806 4.528037654437074
74 1 4.960216729135936 4.436552715791845 3.622430123549659
75 1 4.440892098500626e-16 4.436552715791845 3.622430123549659
76 1 1.6534055763786455 5.915403621055794 1.811215061774829
77 2 7.440325093703903 1.109138178947961 0.9056075308874145
78 1 7.440325093703903 3.3274145368438837 2.7168225926622442
79 1 4.960216729135936 2.218276357895922 1.8112150617748293
80 2 4.133513940946613 4.806265442107832 0.9056075308874143
81 2 6.61362230551458 3.6971272631598704 -4.440892098500626e-16
82 2 1.6534055763786453 3.697127263159871 -4.440892098500626e-16
83 1 1.6534055763786455 10.351956336847639 5.9336451853244885
84 1 7.440325093703903 5.545690894739806 4.528037654437074
85 1 4.960216729135936 6.654829073687768 5.9336451853244885
86 1 4.133513940946613 7.024541800003755 2.716822592662244
87 1 4.133513940946613 9.242818157899677 4.528037654437074
88 1 6.61362230551458 8.133679978951715 3.6224301235496585
89 1 1.6534055763786457 8.133679978951717 3.6224301235496585
90 1 3.3068111527572905 9.612530884215664 1.8112150617748288
91 2 9.093730670082548 4.806265442107832 0.9056075308874142
92 1 9.093730670082547 7.024541800003755 2.716822592662244
93 1 6.61362230551458 5.915403621055793 1.8112150617748288
94 2 5.7869195173252574 8.503392705267704 0.9056075308874139
95 2 8.267027881893226 7.394254526319742 -8.881784197001252e-16
96 2 3.3068111527572905 7.394254526319742 -6.661338147750939e-16
97 1 3.306811152757291 14.04908360000751 5.933645185324488
98 1 9.093730670082547 9.242818157899677 4.528037654437074
99 1 6.613622305514581 10.351956336847639 5.9336451853244885
100 1 5.786919517325258 10.721669063163626 2.7168225926622434
101 1 5.786919517325258 12.939945421059548 4.528037654437073
102 1 8.267027881893226 11.830807242111586 3.622430123549658
103 1 3.306811152757291 11.830807242111588 3.622430123549658
104 2 10.747136246461192 8.503392705267704 0.9056075308874137
105 1 10.747136246461192 10.721669063163626 2.7168225926622434
106 1 8.267027881893226 9.612530884215664 1.8112150617748286
107 1 3.1001354557099616 21.350909944748256 17.800935555973467
108 1 10.747136246461192 12.939945421059548 4.528037654437073
109 1 8.267027881893226 14.04908360000751 5.933645185324488
110 1 3.1001354557099616 25.7874626605401 21.923365679523123
111 1 5.5802438202779285 22.460048123696218 19.20654308686088
112 1 5.58024382027793 24.678324481592142 21.01775814863571
113 1 8.060352184845897 23.56918630264418 20.112150617748295
114 1 3.1001354557099616 23.56918630264418 20.112150617748295
115 1 4.753541032088607 25.048037207908127 17.800935555973464
116 1 10.540460549413863 22.460048123696218 19.20654308686088
117 1 8.060352184845897 21.350909944748256 17.800935555973464
118 2 5.58024382027793 26.896600839488062 22.82897321041054
119 1 4.753541032088608 29.48458992369997 21.923365679523123
120 1 10.540460549413863 24.67832448159214 21.017758148635707
121 2 10.540460549413865 26.896600839488062 22.82897321041054
122 1 8.060352184845897 25.7874626605401 21.923365679523126
123 1 7.233649396656574 26.15717538685609 19.20654308686088
124 1 7.233649396656576 28.375451744752013 21.01775814863571
125 1 9.713757761224542 27.26631356580405 20.112150617748295
126 1 4.753541032088608 27.26631356580405 20.112150617748295
127 1 6.406946608467252 28.745164471067998 17.800935555973464
128 1 12.19386612579251 26.15717538685609 19.20654308686088
129 1 9.713757761224542 25.048037207908127 17.800935555973464
130 2 7.233649396656576 30.593728102647933 22.82897321041054
131 1 6.406946608467253 33.181717186859835 21.923365679523123
132 1 12.19386612579251 28.37545174475201 21.017758148635707
133 2 12.19386612579251 30.593728102647933 22.82897321041054
134 1 9.713757761224542 29.48458992369997 21.923365679523126
135 1 8.88705497303522 29.85430265001596 19.20654308686088
136 1 8.887054973035221 32.072579007911884 21.01775814863571
137 1 11.367163337603188 30.963440828963922 20.112150617748295
138 1 6.406946608467253 30.963440828963922 20.112150617748295
139 1 13.847271702171156 29.85430265001596 19.20654308686088
140 1 11.367163337603188 28.745164471067998 17.800935555973464
141 2 8.887054973035221 34.2908553658078 22.82897321041054
142 1 13.847271702171156 32.07257900791188 21.017758148635707
143 2 13.847271702171156 34.2908553658078 22.82897321041054
144 1 11.367163337603188 33.181717186859835 21.923365679523126
