#Lammps coordinate file for CSL - Axis: [1 1 1]  Angle: (1, 3) -> 59.99999999999999  Plane indices: [0 1 1]  z-position: [6.1836451853244885 18.550935555973464]  Repeats: 1 1 (3, 3) (black, white)  Fixed: 2.228  Boundary equiv: True
144 atoms

2 atom types

0.0 9.920433458271871 xlo xhi
0.0 11.091381789479609 ylo yhi
0.0 24.734580741297954 zlo zhi
4.9602167291359365 17.360758551975785 34.93785263686078 xy xz yz

Atoms

1 1 11.160487640555857 11.923235423690581 7.839252716211904
2 1 16.12070436969179 11.923235423690581 7.839252716211904
3 1 13.640596005123825 13.032373602638541 8.74486024709932
4 1 16.120704369691794 14.141511781586503 9.650467777986734
5 1 19.427515522449085 15.62036268685045 7.839252716211904
6 1 11.160487640555857 14.141511781586503 9.650467777986734
7 1 8.68037927598789 15.250649960534465 10.55607530887415
8 2 11.160487640555857 16.359788139482426 11.461682839761563
9 1 8.68037927598789 13.032373602638543 8.744860247099318
10 2 16.120704369691794 16.359788139482426 11.461682839761563
11 2 13.640596005123825 17.468926318430384 12.367290370648979
12 2 16.120704369691794 18.57806449737835 13.272897901536393
13 1 13.640596005123825 15.250649960534465 10.55607530887415
14 1 14.467298793313146 15.62036268685045 7.839252716211904
15 1 11.98719042874518 16.729500865798414 8.744860247099318
16 1 14.467298793313148 17.838639044746373 9.650467777986734
17 1 19.427515522449085 17.838639044746373 9.650467777986734
18 1 16.947407157881116 18.947777223694334 10.55607530887415
19 2 19.427515522449085 20.056915402642296 11.461682839761563
20 1 16.947407157881116 16.729500865798414 8.74486024709932
21 1 17.77410994607044 19.31748995001032 7.839252716211903
22 1 20.254218310638407 20.426628128958285 8.744860247099318
23 2 11.160487640555859 18.57806449737835 13.272897901536393
24 1 8.680379275987892 19.687202676326308 14.178505432423808
25 1 11.160487640555859 20.796340855274273 15.084112963311222
26 2 8.680379275987892 17.468926318430388 12.367290370648979
27 1 16.120704369691794 20.796340855274273 15.084112963311222
28 1 13.640596005123827 21.905479034222232 15.989720494198638
29 1 16.120704369691794 23.01461721317019 16.89532802508605
30 1 13.640596005123827 19.687202676326308 14.178505432423808
31 2 14.467298793313148 20.056915402642296 11.461682839761563
32 2 11.987190428745182 21.166053581590255 12.367290370648979
33 2 14.467298793313148 22.27519176053822 13.272897901536393
34 1 11.987190428745182 18.947777223694338 10.55607530887415
35 1 12.813893216934503 19.31748995001032 7.839252716211903
36 1 12.813893216934503 21.535766307906243 9.650467777986734
37 2 19.427515522449085 22.27519176053822 13.272897901536393
38 1 16.947407157881116 23.38432993948618 14.178505432423808
39 1 19.427515522449085 24.493468118434144 15.084112963311224
40 2 16.947407157881116 21.166053581590255 12.367290370648979
41 1 17.77410994607044 21.535766307906243 9.650467777986734
42 1 15.29400158150247 22.64490448685421 10.55607530887415
43 2 17.77410994607044 23.754042665802167 11.461682839761563
44 1 15.29400158150247 20.426628128958285 8.744860247099318
45 2 20.254218310638407 24.863180844750126 12.367290370648977
46 1 20.254218310638407 22.6449044868542 10.55607530887415
47 1 11.16048764055586 23.014617213170197 16.89532802508605
48 1 8.680379275987892 21.905479034222232 15.989720494198638
49 1 14.467298793313148 24.493468118434144 15.084112963311222
50 1 11.987190428745183 25.602606297382103 15.989720494198638
51 1 14.46729879331315 26.71174447633006 16.89532802508605
52 1 11.987190428745183 23.38432993948618 14.178505432423808
53 2 12.813893216934503 23.754042665802167 11.461682839761563
54 2 12.813893216934504 25.97231902369809 13.272897901536393
55 1 19.427515522449085 26.71174447633006 16.89532802508605
56 1 16.947407157881116 25.602606297382103 15.98972049419864
57 2 17.77410994607044 25.97231902369809 13.272897901536393
58 1 15.294001581502473 27.08145720264605 14.178505432423808
59 1 17.77410994607044 28.190595381594015 15.084112963311224
60 2 15.29400158150247 24.863180844750126 12.367290370648979
61 1 20.254218310638407 29.299733560541974 15.989720494198636
62 1 20.254218310638404 27.08145720264605 14.178505432423808
63 1 12.813893216934504 28.190595381594015 15.08411296331122
64 1 12.813893216934504 30.408871739489932 16.89532802508605
65 1 17.77410994607044 30.408871739489932 16.895328025086048
66 1 15.294001581502473 29.299733560541974 15.989720494198638
67 1 0.0 2.2182763578959226 1.8112150617748295
68 2 2.4801083645679682 1.109138178947961 0.9056075308874147
69 2 4.960216729135936 0.0 0.0
70 2 0.0 0.0 0.0
71 1 0.0 6.654829073687768 6.1836451853244885
72 1 2.4801083645679682 3.327414536843884 2.7168225926622442
73 1 2.4801083645679682 5.545690894739806 4.528037654437074
74 1 4.960216729135936 4.436552715791845 3.622430123549659
75 1 0.0 4.436552715791845 3.622430123549659
76 1 1.6534055763786455 5.915403621055794 1.811215061774829
77 2 7.440325093703903 1.109138178947961 0.9056075308874146
78 1 7.440325093703903 3.3274145368438837 2.7168225926622442
79 1 4.960216729135936 2.218276357895922 1.8112150617748293
80 2 4.133513940946613 4.806265442107832 0.9056075308874144
81 2 6.61362230551458 3.6971272631598704 -4.440892098500626e-16
82 2 1.6534055763786455 3.697127263159871 -2.220446049250313e-16
83 1 1.6534055763786455 10.351956336847639 6.1836451853244885
84 1 7.440325093703903 5.545690894739806 4.528037654437074
85 1 4.960216729135936 6.654829073687768 6.1836451853244885
86 1 4.133513940946613 7.024541800003755 2.7168225926622442
87 1 4.133513940946613 9.242818157899677 4.528037654437074
88 1 6.61362230551458 8.133679978951715 3.622430123549659
89 1 1.6534055763786455 8.133679978951717 3.622430123549659
90 1 3.306811152757291 9.612530884215664 1.8112150617748288
91 2 9.093730670082548 4.806265442107832 0.9056075308874143
92 1 9.093730670082547 7.024541800003755 2.7168225926622442
93 1 6.61362230551458 5.915403621055793 1.8112150617748288
94 2 5.7869195173252574 8.503392705267704 0.905607530887414
95 2 8.267027881893226 7.394254526319742 -8.881784197001252e-16
96 2 3.306811152757291 7.394254526319742 -6.661338147750939e-16
97 1 3.306811152757291 14.04908360000751 6.183645185324488
98 1 9.093730670082547 9.242818157899677 4.528037654437074
99 1 6.613622305514581 10.351956336847639 6.1836451853244885
100 1 5.786919517325258 10.721669063163626 2.7168225926622434
101 1 5.786919517325258 12.939945421059548 4.528037654437073
102 1 8.267027881893226 11.830807242111586 3.622430123549658
103 1 3.306811152757291 11.830807242111588 3.622430123549658
104 2 10.747136246461192 8.503392705267704 0.9056075308874139
105 1 10.747136246461192 10.721669063163626 2.7168225926622434
106 1 8.267027881893226 9.612530884215664 1.8112150617748286
107 1 17.360758551975778 28.28302356317301 18.550935555973467
108 1 10.747136246461192 12.939945421059548 4.528037654437073
109 1 8.267027881893226 14.04908360000751 6.183645185324488
110 1 17.360758551975778 32.71957627896486 22.923365679523123
111 1 19.840866916543746 29.392161742120976 20.20654308686088
112 1 19.840866916543746 31.6104381000169 22.01775814863571
113 1 22.320975281111714 30.501299921068934 21.112150617748295
114 1 17.360758551975778 30.501299921068934 21.112150617748295
115 1 19.014164128354423 31.98015082633288 18.550935555973464
116 1 24.801083645679682 29.392161742120976 20.20654308686088
117 1 22.320975281111714 28.28302356317301 18.550935555973464
118 2 19.840866916543746 33.82871445791282 23.82897321041054
119 1 19.014164128354423 36.41670354212473 22.923365679523123
120 1 24.801083645679682 31.610438100016893 22.017758148635707
121 2 24.801083645679682 33.82871445791282 23.82897321041054
122 1 22.320975281111714 32.71957627896486 22.923365679523126
123 1 21.49427249292239 33.08928900528085 20.20654308686088
124 1 21.49427249292239 35.30756536317677 22.01775814863571
125 1 23.97438085749036 34.198427184228805 21.112150617748295
126 1 19.014164128354423 34.198427184228805 21.112150617748295
127 1 20.66756970473307 35.67727808949275 18.550935555973464
128 1 26.454489222058328 33.08928900528085 20.20654308686088
129 1 23.97438085749036 31.98015082633288 18.550935555973464
130 2 21.49427249292239 37.52584172107269 23.82897321041054
131 1 20.66756970473307 40.1138308052846 22.923365679523123
132 1 26.454489222058328 35.307565363176764 22.017758148635707
133 2 26.454489222058328 37.52584172107269 23.82897321041054
134 1 23.97438085749036 36.41670354212473 22.923365679523126
135 1 23.147678069301037 36.78641626844072 20.20654308686088
136 1 23.147678069301037 39.00469262633664 22.01775814863571
137 1 25.627786433869005 37.895554447388676 21.112150617748295
138 1 20.66756970473307 37.895554447388676 21.112150617748295
139 1 28.107894798436973 36.78641626844072 20.20654308686088
140 1 25.627786433869005 35.67727808949275 18.550935555973464
141 2 23.147678069301037 41.222968984232566 23.82897321041054
142 1 28.107894798436973 39.004692626336634 22.017758148635707
143 2 28.107894798436973 41.222968984232566 23.82897321041054
144 1 25.627786433869005 40.1138308052846 22.923365679523126
