ITEM: TIMESTEP
0
ITEM: NUMBER OF ATOMS
144
ITEM: BOX BOUNDS xy xz yz pp pp pp
0.0000000000000000e+00 2.3561029463395698e+01 4.9602167291359365e+00
0.0000000000000000e+00 5.4347770768450090e+01 8.6803792759878924e+00
0.0000000000000000e+00 2.5734580741297954e+01 4.3256388978970485e+01
ITEM: ATOMS id type x y z c_peatom
70 2 0 0 0 -3.37581
69 2 4.96022 3.73227e-16 0 -3.37581
81 2 6.61362 3.69713 0 -3.37581
82 2 11.5738 3.69713 0 -3.37581
80 2 4.13351 4.80627 0.905608 -3.3849
86 1 4.13351 7.02454 2.71682 -3.3461
88 1 6.61362 8.13368 3.62243 -3.19453
91 2 9.09373 4.80627 0.905608 -3.3849
92 1 9.09373 7.02454 2.71682 -3.3461
93 1 6.61362 5.9154 1.81122 -3.395
94 2 5.78692 8.50339 0.905608 -3.3849
95 2 8.26703 7.39425 0 -3.37581
76 1 11.5738 5.9154 1.81122 -3.395
89 1 11.5738 8.13368 3.62243 -3.19453
96 2 13.2272 7.39425 0 -3.37581
104 2 10.7471 8.50339 0.905608 -3.3849
87 1 4.13351 9.24282 4.52804 -2.93448
68 2 7.44033 12.2005 0.905608 -3.3849
98 1 9.09373 9.24282 4.52804 -2.93448
100 1 5.78692 10.7217 2.71682 -3.34645
101 1 5.78692 12.9399 4.52804 -2.93618
102 1 8.26703 11.8308 3.62243 -3.21063
106 1 8.26703 9.61253 1.81122 -3.395
77 2 12.4005 12.2005 0.905608 -3.3849
79 1 9.92043 13.3097 1.81122 -3.395
90 1 13.2272 9.61253 1.81122 -3.395
103 1 13.2272 11.8308 3.62243 -3.21063
105 1 10.7471 10.7217 2.71682 -3.34645
108 1 10.7471 12.9399 4.52804 -2.93618
67 1 14.8807 13.3097 1.81122 -3.395
72 1 7.44033 14.4188 2.71682 -3.34338
73 1 7.44033 16.6371 4.52804 -2.91945
74 1 9.92043 15.5279 3.62243 -3.18793
78 1 12.4005 14.4188 2.71682 -3.34338
84 1 12.4005 16.6371 4.52804 -2.91945
75 1 14.8807 15.5279 3.62243 -3.18793
9 1 4.34019 17.1916 9.24486 -3.182
1 1 6.8203 16.0825 8.33925 -2.9485
3 1 9.30041 17.1916 9.24486 -3.182
109 1 8.26703 14.0491 6.43365 -2.48329
2 1 11.7805 16.0825 8.33925 -2.9485
85 1 9.92043 17.7462 6.43365 -2.5459
97 1 13.2272 14.0491 6.43365 -2.48329
71 1 14.8807 17.7462 6.43365 -2.5459
6 1 6.8203 18.3008 10.1505 -3.3519
15 1 7.647 20.8888 9.24486 -3.17343
4 1 11.7805 18.3008 10.1505 -3.3519
14 1 10.1271 19.7796 8.33925 -2.9294
16 1 10.1271 21.9979 10.1505 -3.33517
20 1 12.6072 20.8888 9.24486 -3.17343
99 1 11.5738 21.4433 6.43365 -2.58476
5 1 15.0873 19.7796 8.33925 -2.9294
17 1 15.0873 21.9979 10.1505 -3.33517
83 1 16.5341 21.4433 6.43365 -2.58476
35 1 8.4737 23.4768 8.33925 -2.85651
36 1 8.4737 25.695 10.1505 -3.36847
21 1 13.4339 23.4768 8.33925 -2.85651
41 1 13.4339 25.695 10.1505 -3.36847
44 1 10.9538 24.5859 9.24486 -3.18488
22 1 15.914 24.5859 9.24486 -3.18488
7 1 4.34019 19.4099 11.0561 -3.39173
8 2 6.8203 20.5191 11.9617 -3.38423
13 1 9.30041 19.4099 11.0561 -3.39173
10 2 11.7805 20.5191 11.9617 -3.38423
32 2 7.647 25.3253 12.8673 -3.37571
34 1 7.647 23.107 11.0561 -3.39462
18 1 12.6072 23.107 11.0561 -3.39462
31 2 10.1271 24.2162 11.9617 -3.38929
33 2 10.1271 26.4345 13.7729 -3.38668
40 2 12.6072 25.3253 12.8673 -3.37571
42 1 10.9538 26.8042 11.0561 -3.38502
19 2 15.0873 24.2162 11.9617 -3.38929
37 2 15.0873 26.4345 13.7729 -3.38668
46 1 15.914 26.8042 11.0561 -3.38502
52 1 7.647 27.5436 14.6785 -3.38502
53 2 8.4737 27.9133 11.9617 -3.38668
54 2 8.4737 30.1316 13.7729 -3.38929
38 1 12.6072 27.5436 14.6785 -3.38502
43 2 13.4339 27.9133 11.9617 -3.38668
57 2 13.4339 30.1316 13.7729 -3.38929
58 1 10.9538 31.2407 14.6785 -3.39462
60 2 10.9538 29.0224 12.8673 -3.37571
45 2 15.914 29.0224 12.8673 -3.37571
62 1 15.914 31.2407 14.6785 -3.39462
26 2 9.30041 32.7196 12.8673 -3.37581
23 2 11.7805 33.8287 13.7729 -3.38423
11 2 14.2606 32.7196 12.8673 -3.37581
12 2 16.7407 33.8287 13.7729 -3.38423
30 1 14.2606 34.9379 14.6785 -3.39173
24 1 19.2208 34.9379 14.6785 -3.39173
50 1 7.647 29.7619 16.4897 -3.18488
49 1 10.1271 28.6527 15.5841 -3.36847
51 1 10.1271 30.871 17.3953 -2.85651
56 1 12.6072 29.7619 16.4897 -3.18488
39 1 15.0873 28.6527 15.5841 -3.36847
55 1 15.0873 30.871 17.3953 -2.85651
63 1 8.4737 32.3499 15.5841 -3.33517
64 1 8.4737 34.5681 17.3953 -2.9294
127 1 7.02697 32.9044 19.3009 -2.58476
25 1 11.7805 36.047 15.5841 -3.3519
59 1 13.4339 32.3499 15.5841 -3.33517
65 1 13.4339 34.5681 17.3953 -2.9294
66 1 10.9538 33.459 16.4897 -3.17343
140 1 11.9872 32.9044 19.3009 -2.58476
27 1 16.7407 36.047 15.5841 -3.3519
61 1 15.914 33.459 16.4897 -3.17343
107 1 8.68038 36.6016 19.3009 -2.5459
47 1 11.7805 38.2653 17.3953 -2.9485
115 1 10.3338 40.2987 19.3009 -2.48329
117 1 13.6406 36.6016 19.3009 -2.5459
28 1 14.2606 37.1561 16.4897 -3.182
29 1 16.7407 38.2653 17.3953 -2.9485
129 1 15.294 40.2987 19.3009 -2.48329
48 1 19.2208 37.1561 16.4897 -3.182
114 1 8.68038 38.8198 22.1122 -3.18793
111 1 11.1605 37.7107 21.2065 -2.91945
112 1 11.1605 39.929 23.0178 -3.34338
113 1 13.6406 38.8198 22.1122 -3.18793
116 1 16.1207 37.7107 21.2065 -2.91945
120 1 16.1207 39.929 23.0178 -3.34338
110 1 8.68038 41.0381 23.9234 -3.395
118 2 11.1605 42.1473 24.829 -3.3849
119 1 10.3338 44.7352 23.9234 -3.395
122 1 13.6406 41.0381 23.9234 -3.395
123 1 12.8139 41.4078 21.2065 -2.93618
124 1 12.8139 43.6261 23.0178 -3.34645
126 1 10.3338 42.517 22.1122 -3.21063
121 2 16.1207 42.1473 24.829 -3.3849
125 1 15.294 42.517 22.1122 -3.21063
128 1 17.7741 41.4078 21.2065 -2.93618
132 1 17.7741 43.6261 23.0178 -3.34645
134 1 15.294 44.7352 23.9234 -3.395
135 1 14.4673 45.105 21.2065 -2.93448
139 1 19.4275 45.105 21.2065 -2.93448
130 2 12.8139 45.8444 24.829 -3.3849
131 1 11.9872 48.4324 23.9234 -3.395
138 1 11.9872 46.2141 22.1122 -3.19453
133 2 17.7741 45.8444 24.829 -3.3849
136 1 14.4673 47.3232 23.0178 -3.3461
137 1 16.9474 46.2141 22.1122 -3.19453
141 2 14.4673 49.5415 24.829 -3.3849
144 1 16.9474 48.4324 23.9234 -3.395
142 1 19.4275 47.3232 23.0178 -3.3461
143 2 19.4275 49.5415 24.829 -3.3849
