ITEM: TIMESTEP
100000
ITEM: NUMBER OF ATOMS
144
ITEM: BOX BOUNDS xy xz yz pp pp pp
0.0000000000000000e+00 2.4181056554537690e+01 4.9602167291359365e+00
0.0000000000000000e+00 5.8507038939504952e+01 9.3004063671298844e+00
0.0000000000000000e+00 2.0734580741297954e+01 4.7415657150025339e+01
ITEM: ATOMS id type x y z c_peatom
70 2 0 0 0 -3.33587
69 2 4.96022 5.0777e-16 0 -3.33587
81 2 6.61362 3.69713 0 -3.34701
82 2 11.5738 3.69713 0 -3.34701
76 1 1.65904 5.84946 1.6915 -3.33247
80 2 4.13351 4.80627 0.905608 -3.31924
86 1 4.17817 6.90765 2.55113 -3.2869
89 1 1.72104 7.92928 3.41642 -3.29879
91 2 9.09373 4.80627 0.905608 -3.31924
92 1 9.13838 6.90765 2.55113 -3.2869
93 1 6.61926 5.84946 1.6915 -3.33247
94 2 5.78692 8.50339 0.905608 -3.33894
95 2 8.26703 7.39425 0 -3.34701
88 1 6.68126 7.92928 3.41642 -3.29879
96 2 13.2272 7.39425 0 -3.34701
104 2 10.7471 8.50339 0.905608 -3.33894
67 1 4.93007 13.2213 1.74093 -3.32454
68 2 7.44033 12.2005 0.905608 -3.34293
100 1 5.7425 10.6172 2.61132 -3.3128
101 1 5.45272 12.5381 4.44841 -3.04762
102 1 8.09405 11.7744 3.64889 -3.3319
106 1 8.24253 9.60306 1.75797 -3.36813
90 1 13.2028 9.60306 1.75797 -3.36813
103 1 13.0543 11.7744 3.64889 -3.3319
77 2 12.4005 12.2005 0.905608 -3.34293
79 1 9.89029 13.2213 1.74093 -3.32454
105 1 10.7027 10.6172 2.61132 -3.3128
108 1 10.4129 12.5381 4.44841 -3.04762
72 1 7.43093 14.3155 2.58126 -3.29664
73 1 7.52514 16.4941 4.2602 -3.29345
75 1 5.00372 15.3286 3.44643 -3.3245
71 1 5.00113 17.4207 5.1629 -3.34894
74 1 9.96394 15.3286 3.44643 -3.3245
78 1 12.3911 14.3155 2.58126 -3.29664
84 1 12.4854 16.4941 4.2602 -3.29345
85 1 9.96135 17.4207 5.1629 -3.34894
87 1 9.20821 20.0243 4.2641 -3.29522
83 1 6.83555 21.0284 5.13074 -3.25974
98 1 14.1684 20.0243 4.2641 -3.29522
99 1 11.7958 21.0284 5.13074 -3.25974
35 1 4.22634 14.7806 6.02924 -3.24861
109 1 6.90791 14.1521 5.22162 -2.90146
21 1 9.18655 14.7806 6.02924 -3.24861
97 1 11.8681 14.1521 5.22162 -2.90146
7 1 4.67492 21.5358 8.72981 -3.26577
1 1 7.43068 18.4512 6.08389 -3.34039
6 1 7.24712 20.5498 7.7569 -3.33398
13 1 9.63514 21.5358 8.72981 -3.26577
14 1 9.56339 21.8501 6.1395 -3.0601
9 1 4.8887 19.3929 6.96352 -3.28212
3 1 9.84891 19.3929 6.96352 -3.28212
2 1 12.3909 18.4512 6.08389 -3.34039
4 1 12.2073 20.5498 7.7569 -3.33398
5 1 14.5236 21.8501 6.1395 -3.0601
8 2 7.13031 22.5987 9.46168 -3.33724
15 1 7.59513 23.1946 6.70878 -3.15934
34 1 7.92434 25.229 8.57881 -3.34545
10 2 12.0905 22.5987 9.46168 -3.33724
16 1 10.3189 24.1186 7.66727 -3.31557
18 1 12.8846 25.229 8.57881 -3.34545
20 1 12.5554 23.1946 6.70878 -3.15934
31 2 10.4371 26.2958 9.46168 -3.3399
17 1 15.2791 24.1186 7.66727 -3.31557
19 2 15.3973 26.2958 9.46168 -3.3399
36 1 8.92924 27.9052 7.79107 -3.30499
53 2 8.78372 29.9929 9.46168 -3.34244
44 1 11.4788 27.0139 6.99498 -3.22998
41 1 13.8895 27.9052 7.79107 -3.30499
42 1 11.3359 28.9894 8.70547 -3.2689
43 2 13.7439 29.9929 9.46168 -3.34244
22 1 16.4391 27.0139 6.99498 -3.22998
46 1 16.2962 28.9894 8.70547 -3.2689
26 2 4.6502 23.7078 10.3673 -3.34625
32 2 7.95701 27.405 10.3673 -3.32304
52 1 7.8849 29.5176 12.0291 -3.2689
50 1 7.74199 31.4931 13.7396 -3.22998
33 2 10.4371 28.5141 11.2729 -3.34244
38 1 12.8451 29.5176 12.0291 -3.2689
40 2 12.9172 27.405 10.3673 -3.32304
49 1 10.2916 30.6018 12.9435 -3.30499
60 2 11.2638 31.1021 10.3673 -3.32304
56 1 12.7022 31.4931 13.7396 -3.22998
37 2 15.3973 28.5141 11.2729 -3.34244
39 1 15.2518 30.6018 12.9435 -3.30499
45 2 16.224 31.1021 10.3673 -3.32304
54 2 8.78372 32.2112 11.2729 -3.3399
63 1 8.90194 34.3884 13.0673 -3.31557
23 2 12.0905 35.9083 11.2729 -3.33724
57 2 13.7439 32.2112 11.2729 -3.3399
58 1 11.2965 33.278 12.1558 -3.34545
59 1 13.8622 34.3884 13.0673 -3.31557
66 1 11.6257 35.3125 14.0258 -3.15934
11 2 14.5706 34.7992 10.3673 -3.34625
12 2 17.0507 35.9083 11.2729 -3.33724
61 1 16.5859 35.3125 14.0258 -3.15934
62 1 16.2567 33.278 12.1558 -3.34545
64 1 9.65745 36.6569 14.5951 -3.0601
25 1 11.9737 37.9573 12.9777 -3.33398
47 1 11.7902 40.0559 14.6507 -3.34039
28 1 14.3321 39.1141 13.7711 -3.28212
48 1 19.2924 39.1141 13.7711 -3.28212
65 1 14.6177 36.6569 14.5951 -3.0601
27 1 16.9339 37.9573 12.9777 -3.33398
29 1 16.7504 40.0559 14.6507 -3.34039
30 1 14.5459 36.9712 12.0048 -3.26577
24 1 19.5061 36.9712 12.0048 -3.26577
115 1 12.3129 44.355 15.513 -2.90146
51 1 14.9945 43.7264 14.7053 -3.24861
129 1 17.2731 44.355 15.513 -2.90146
55 1 19.9547 43.7264 14.7053 -3.24861
135 1 10.0126 38.4828 16.4705 -3.29522
140 1 12.3853 37.4786 15.6038 -3.25974
127 1 17.3455 37.4786 15.6038 -3.25974
139 1 14.9728 38.4828 16.4705 -3.29522
111 1 11.6957 42.0129 16.4744 -3.29345
112 1 11.7899 44.1916 18.1533 -3.29664
113 1 14.2171 43.1785 17.2882 -3.3245
117 1 14.2197 41.0863 15.5717 -3.34894
107 1 19.1799 41.0863 15.5717 -3.34894
114 1 19.1773 43.1785 17.2882 -3.3245
116 1 16.6559 42.0129 16.4744 -3.29345
120 1 16.7501 44.1916 18.1533 -3.29664
118 2 11.7805 46.3065 19.829 -3.34293
122 1 14.2908 45.2858 18.9937 -3.32454
123 1 13.7681 45.9689 16.2862 -3.04762
124 1 13.4783 47.8899 18.1233 -3.3128
119 1 10.9783 48.904 18.9766 -3.36813
126 1 11.1268 46.7326 17.0857 -3.3319
110 1 19.251 45.2858 18.9937 -3.32454
121 2 16.7407 46.3065 19.829 -3.34293
125 1 16.087 46.7326 17.0857 -3.3319
128 1 18.7283 45.9689 16.2862 -3.04762
132 1 18.4386 47.8899 18.1233 -3.3128
134 1 15.9385 48.904 18.9766 -3.36813
130 2 13.4339 50.0036 19.829 -3.33894
137 1 17.4998 50.5778 17.3182 -3.29879
133 2 18.3941 50.0036 19.829 -3.33894
136 1 15.0427 51.5994 18.1835 -3.2869
141 2 15.0873 53.7008 19.829 -3.31924
144 1 17.5618 52.6576 19.0431 -3.33247
138 1 22.46 50.5778 17.3182 -3.29879
131 1 22.522 52.6576 19.0431 -3.33247
142 1 20.0029 51.5994 18.1835 -3.2869
143 2 20.0475 53.7008 19.829 -3.31924
