LAMMPS (29 Aug 2024 - Update 2)
#---------------------------------------------------------------------------------------------------
# Initilise important features of simulation
#---------------------------------------------------------------------------------------------------
units 		metal	# Use metals units (Ang, ps, eV, bar, etc.)
dimension 	3		# Run the simulation in three dimensions
boundary 	p p p	# Use periodic boundaries in all three dimensions
atom_style 	atomic	#
#box tilt large		# Allow larger than normal tilt factors

variable T_start equal 600
variable T_end equal 200
variable tstep equal 0.002
timestep ${tstep}
timestep 0.002

read_data   lammps.txt	# Read in atom coordinates from a file
Reading data file ...
  triclinic box = (0 0 0) to (9.9204335 11.091382 24.734581) with tilt (4.9602167 20.460894 44.642812)
WARNING: Triclinic box skew is large. LAMMPS will run inefficiently. (src/domain.cpp:221)
  1 by 1 by 1 MPI processor grid
  reading atoms ...
  144 atoms
  read_data CPU = 0.001 seconds

#---------------------------------------------------------------------------------------------------
# Define how the forces between the atoms will be modelled
#---------------------------------------------------------------------------------------------------
pair_style eam/alloy
pair_coeff * * Zope-Ti-Al-2003.eam.alloy.txt Al Al

#---------------------------------------------------------------------------------------------------
# Set behaviour of simulation
#---------------------------------------------------------------------------------------------------
group g_fixed type 2
36 atoms in group g_fixed
group g_other type 1
108 atoms in group g_other
fix f_freeze g_fixed setforce 0.0 0.0 0.0 	# Hold atoms of type 2 fixed in place
#fix f_constrain g_other setforce 0.0 0.0 NULL 	# All atoms of type 1 to move only in z direction

#---------------------------------------------------------------------------------------------------
# Specify what information to write out
#---------------------------------------------------------------------------------------------------
thermo_style custom step atoms temp pe ke etotal fmax
thermo_modify format 6 %20.10f
thermo 1000

#compute statom all stress/atom NULL
compute peatom all pe/atom
dump 1 all custom 100000 dump.* id type x y z c_peatom
dump_modify 1 first yes


#---------------------------------------------------------------------------------------------------
# Initial relaxation
#---------------------------------------------------------------------------------------------------
velocity all set 0.0 0.0 0.0

min_style 	cg
min_modify dmax 0.1
minimize 	0.0 1.0e-6 10000 100000
Neighbor list info ...
  update: every = 1 steps, delay = 0 steps, check = yes
  max neighbors/atom: 2000, page size: 100000
  master list distance cutoff = 8.724884
  ghost atom cutoff = 8.724884
  binsize = 4.362442, bins = 9 13 6
  1 neighbor lists, perpetual/occasional/extra = 1 0 0
  (1) pair eam/alloy, perpetual
      attributes: half, newton on
      pair build: half/bin/atomonly/newton/tri
      stencil: half/bin/3d/tri
      bin: standard
Per MPI rank memory allocation (min/avg/max) = 4.668 | 4.668 | 4.668 Mbytes
   Step        Atoms         Temp          PotEng         KinEng         TotEng          Fmax     
         0         144   0             -459.28455      0                  -459.2845526888  2.3957083    
        77         144   0             -468.58482      0                  -468.5848189135  1.5255025e-07
Loop time of 0.011941 on 1 procs for 77 steps with 144 atoms

99.1% CPU use with 1 MPI tasks x no OpenMP threads

Minimization stats:
  Stopping criterion = force tolerance
  Energy initial, next-to-last, final = 
     -459.284552688794   -468.58481891353  -468.584818913531
  Force two-norm initial, final = 9.6684333 8.7243559e-07
  Force max component initial, final = 2.3957083 1.5255025e-07
  Final line search alpha, max atom move = 1 1.5255025e-07
  Iterations, force evaluations = 77 148

MPI task timing breakdown:
Section |  min time  |  avg time  |  max time  |%varavg| %total
---------------------------------------------------------------
Pair    | 0.010721   | 0.010721   | 0.010721   |   0.0 | 89.79
Neigh   | 0          | 0          | 0          |   0.0 |  0.00
Comm    | 0.00068108 | 0.00068108 | 0.00068108 |   0.0 |  5.70
Output  | 0          | 0          | 0          |   0.0 |  0.00
Modify  | 1.8918e-05 | 1.8918e-05 | 1.8918e-05 |   0.0 |  0.16
Other   |            | 0.0005197  |            |       |  4.35

Nlocal:            144 ave         144 max         144 min
Histogram: 1 0 0 0 0 0 0 0 0 0
Nghost:           2774 ave        2774 max        2774 min
Histogram: 1 0 0 0 0 0 0 0 0 0
Neighs:          10884 ave       10884 max       10884 min
Histogram: 1 0 0 0 0 0 0 0 0 0

Total # of neighbors = 10884
Ave neighs/atom = 75.583333
Neighbor list builds = 0
Dangerous builds = 0
#---------------------------------------------------------------------------------------------------
# Anneal boundary structures
#---------------------------------------------------------------------------------------------------
reset_timestep 100000
fix md g_other nvt temp ${T_start} ${T_end} $(100.0*v_tstep)
fix md g_other nvt temp 600 ${T_end} $(100.0*v_tstep)
fix md g_other nvt temp 600 200 $(100.0*v_tstep)
fix md g_other nvt temp 600 200 0.2000000000000000111

velocity all create ${T_start} 4928459 rot yes mom yes dist gaussian
velocity all create 600 4928459 rot yes mom yes dist gaussian
run 10000
Per MPI rank memory allocation (min/avg/max) = 4.94 | 4.94 | 4.94 Mbytes
   Step        Atoms         Temp          PotEng         KinEng         TotEng          Fmax     
    100000         144   600           -468.58482      11.09052           -457.4942984725  1.5255025e-07
    101000         144   567.32229     -463.47966      10.486499          -452.9931658223  1.3195888    
    102000         144   608.08743     -463.75924      11.24001           -452.5192344291  1.2578876    
    103000         144   513.0326      -464.79221      9.4829976          -455.3092133820  1.3432687    
    104000         144   541.70222     -466.36269      10.012933          -456.3497568451  1.0904897    
    105000         144   486.09703     -465.8376       8.9851151          -456.8524826965  1.2987315    
    106000         144   497.48752     -466.97195      9.1956592          -457.7762930649  0.94821665   
    107000         144   407.05052     -467.86113      7.5240036          -460.3371273029  0.96114997   
    108000         144   367.06498     -468.74125      6.7849027          -461.9563439548  0.90394545   
    109000         144   380.70963     -469.17887      7.0371133          -462.1417552705  0.76373571   
    110000         144   328.71616     -469.71529      6.0760555          -463.6392319823  0.72128264   
Loop time of 0.830677 on 1 procs for 10000 steps with 144 atoms

Performance: 2080.232 ns/day, 0.012 hours/ns, 12038.379 timesteps/s, 1.734 Matom-step/s
99.9% CPU use with 1 MPI tasks x no OpenMP threads

MPI task timing breakdown:
Section |  min time  |  avg time  |  max time  |%varavg| %total
---------------------------------------------------------------
Pair    | 0.7147     | 0.7147     | 0.7147     |   0.0 | 86.04
Neigh   | 0.042523   | 0.042523   | 0.042523   |   0.0 |  5.12
Comm    | 0.050502   | 0.050502   | 0.050502   |   0.0 |  6.08
Output  | 4.4498e-05 | 4.4498e-05 | 4.4498e-05 |   0.0 |  0.01
Modify  | 0.010817   | 0.010817   | 0.010817   |   0.0 |  1.30
Other   |            | 0.01209    |            |       |  1.46

Nlocal:            144 ave         144 max         144 min
Histogram: 1 0 0 0 0 0 0 0 0 0
Nghost:           2869 ave        2869 max        2869 min
Histogram: 1 0 0 0 0 0 0 0 0 0
Neighs:          10622 ave       10622 max       10622 min
Histogram: 1 0 0 0 0 0 0 0 0 0

Total # of neighbors = 10622
Ave neighs/atom = 73.763889
Neighbor list builds = 97
Dangerous builds = 0
unfix md

#---------------------------------------------------------------------------------------------------
# Final relaxation
#---------------------------------------------------------------------------------------------------
velocity all set 0.0 0.0 0.0

min_style 	cg
min_modify dmax 0.1
minimize 	0.0 1.0e-6 10000 100000
Per MPI rank memory allocation (min/avg/max) = 6.065 | 6.065 | 6.065 Mbytes
   Step        Atoms         Temp          PotEng         KinEng         TotEng          Fmax     
    110000         144   0             -469.71529      0                  -469.7152875182  0.72128264   
    110055         144   0             -472.41406      0                  -472.4140644311  1.6057788e-07
Loop time of 0.0097165 on 1 procs for 55 steps with 144 atoms

97.7% CPU use with 1 MPI tasks x no OpenMP threads

Minimization stats:
  Stopping criterion = force tolerance
  Energy initial, next-to-last, final = 
      -469.71528751824  -472.414064431128  -472.414064431128
  Force two-norm initial, final = 4.4642873 9.2155549e-07
  Force max component initial, final = 0.72128264 1.6057788e-07
  Final line search alpha, max atom move = 1 1.6057788e-07
  Iterations, force evaluations = 55 108

MPI task timing breakdown:
Section |  min time  |  avg time  |  max time  |%varavg| %total
---------------------------------------------------------------
Pair    | 0.008603   | 0.008603   | 0.008603   |   0.0 | 88.54
Neigh   | 0          | 0          | 0          |   0.0 |  0.00
Comm    | 0.00053841 | 0.00053841 | 0.00053841 |   0.0 |  5.54
Output  | 0          | 0          | 0          |   0.0 |  0.00
Modify  | 1.5215e-05 | 1.5215e-05 | 1.5215e-05 |   0.0 |  0.16
Other   |            | 0.0005599  |            |       |  5.76

Nlocal:            144 ave         144 max         144 min
Histogram: 1 0 0 0 0 0 0 0 0 0
Nghost:           2887 ave        2887 max        2887 min
Histogram: 1 0 0 0 0 0 0 0 0 0
Neighs:          10626 ave       10626 max       10626 min
Histogram: 1 0 0 0 0 0 0 0 0 0

Total # of neighbors = 10626
Ave neighs/atom = 73.791667
Neighbor list builds = 0
Dangerous builds = 0

Total wall time: 0:00:00
