LAMMPS (29 Aug 2024 - Update 2)
#---------------------------------------------------------------------------------------------------
# Initilise important features of simulation
#---------------------------------------------------------------------------------------------------
units 		metal	# Use metals units (Ang, ps, eV, bar, etc.)
dimension 	3		# Run the simulation in three dimensions
boundary 	p p p	# Use periodic boundaries in all three dimensions
atom_style 	atomic	#
#box tilt large		# Allow larger than normal tilt factors

variable T_start equal 600
variable T_end equal 200
variable tstep equal 0.002
timestep ${tstep}
timestep 0.002

read_data   lammps.txt	# Read in atom coordinates from a file
Reading data file ...
  triclinic box = (0 0 0) to (9.9204335 11.091382 19.734581) with tilt (4.9602167 20.460894 33.55143)
WARNING: Triclinic box skew is large. LAMMPS will run inefficiently. (src/domain.cpp:221)
  1 by 1 by 1 MPI processor grid
  reading atoms ...
  144 atoms
  read_data CPU = 0.001 seconds

#---------------------------------------------------------------------------------------------------
# Define how the forces between the atoms will be modelled
#---------------------------------------------------------------------------------------------------
pair_style eam/alloy
pair_coeff * * Zope-Ti-Al-2003.eam.alloy.txt Al Al

#---------------------------------------------------------------------------------------------------
# Set behaviour of simulation
#---------------------------------------------------------------------------------------------------
group g_fixed type 2
36 atoms in group g_fixed
group g_other type 1
108 atoms in group g_other
fix f_freeze g_fixed setforce 0.0 0.0 0.0 	# Hold atoms of type 2 fixed in place
#fix f_constrain g_other setforce 0.0 0.0 NULL 	# All atoms of type 1 to move only in z direction

#---------------------------------------------------------------------------------------------------
# Specify what information to write out
#---------------------------------------------------------------------------------------------------
thermo_style custom step atoms temp pe ke etotal fmax
thermo_modify format 6 %20.10f
thermo 1000

#compute statom all stress/atom NULL
compute peatom all pe/atom
dump 1 all custom 100000 dump.* id type x y z c_peatom
dump_modify 1 first yes


#---------------------------------------------------------------------------------------------------
# Initial relaxation
#---------------------------------------------------------------------------------------------------
velocity all set 0.0 0.0 0.0

min_style 	cg
min_modify dmax 0.1
minimize 	0.0 1.0e-6 10000 100000
Neighbor list info ...
  update: every = 1 steps, delay = 0 steps, check = yes
  max neighbors/atom: 2000, page size: 100000
  master list distance cutoff = 8.724884
  ghost atom cutoff = 8.724884
  binsize = 4.362442, bins = 9 11 5
  1 neighbor lists, perpetual/occasional/extra = 1 0 0
  (1) pair eam/alloy, perpetual
      attributes: half, newton on
      pair build: half/bin/atomonly/newton/tri
      stencil: half/bin/3d/tri
      bin: standard
Per MPI rank memory allocation (min/avg/max) = 4.711 | 4.711 | 4.711 Mbytes
   Step        Atoms         Temp          PotEng         KinEng         TotEng          Fmax     
         0         144   0             -414.45208      0                  -414.4520835999  9.35822      
        58         144   0             -466.91815      0                  -466.9181515272  1.2076467e-07
Loop time of 0.0117195 on 1 procs for 58 steps with 144 atoms

99.3% CPU use with 1 MPI tasks x no OpenMP threads

Minimization stats:
  Stopping criterion = force tolerance
  Energy initial, next-to-last, final = 
     -414.452083599873  -466.918151527205  -466.918151527205
  Force two-norm initial, final = 40.403491 7.7141544e-07
  Force max component initial, final = 9.35822 1.2076467e-07
  Final line search alpha, max atom move = 1 1.2076467e-07
  Iterations, force evaluations = 58 106

MPI task timing breakdown:
Section |  min time  |  avg time  |  max time  |%varavg| %total
---------------------------------------------------------------
Pair    | 0.010207   | 0.010207   | 0.010207   |   0.0 | 87.09
Neigh   | 0.00050437 | 0.00050437 | 0.00050437 |   0.0 |  4.30
Comm    | 0.00058267 | 0.00058267 | 0.00058267 |   0.0 |  4.97
Output  | 0          | 0          | 0          |   0.0 |  0.00
Modify  | 1.4334e-05 | 1.4334e-05 | 1.4334e-05 |   0.0 |  0.12
Other   |            | 0.0004112  |            |       |  3.51

Nlocal:            144 ave         144 max         144 min
Histogram: 1 0 0 0 0 0 0 0 0 0
Nghost:           3164 ave        3164 max        3164 min
Histogram: 1 0 0 0 0 0 0 0 0 0
Neighs:          13132 ave       13132 max       13132 min
Histogram: 1 0 0 0 0 0 0 0 0 0

Total # of neighbors = 13132
Ave neighs/atom = 91.194444
Neighbor list builds = 1
Dangerous builds = 0
#---------------------------------------------------------------------------------------------------
# Anneal boundary structures
#---------------------------------------------------------------------------------------------------
reset_timestep 100000
fix md g_other nvt temp ${T_start} ${T_end} $(100.0*v_tstep)
fix md g_other nvt temp 600 ${T_end} $(100.0*v_tstep)
fix md g_other nvt temp 600 200 $(100.0*v_tstep)
fix md g_other nvt temp 600 200 0.2000000000000000111

velocity all create ${T_start} 4928459 rot yes mom yes dist gaussian
velocity all create 600 4928459 rot yes mom yes dist gaussian
run 10000
Per MPI rank memory allocation (min/avg/max) = 4.968 | 4.968 | 4.968 Mbytes
   Step        Atoms         Temp          PotEng         KinEng         TotEng          Fmax     
    100000         144   600           -466.91815      11.09052           -455.8276310862  1.2076466e-07
    101000         144   547.52163     -458.38896      10.1205            -448.2684567917  1.5307353    
    102000         144   607.74552     -459.32392      11.23369           -448.0902281766  1.6711394    
    103000         144   555.13086     -460.11021      10.26115           -449.8490613860  1.2829311    
    104000         144   494.8399      -461.00134      9.14672            -451.8546166867  1.3762186    
    105000         144   482.30776     -461.62105      8.9150734          -452.7059810312  1.3605789    
    106000         144   470.85437     -461.37527      8.7033668          -452.6719033505  1.497974     
    107000         144   439.627       -462.78837      8.1261538          -454.6622149482  1.2305714    
    108000         144   399.06105     -463.22656      7.3763246          -455.8502317137  0.90842068   
    109000         144   345.14734     -463.78952      6.3797728          -457.4097451770  1.1757613    
    110000         144   329.25928     -464.94276      6.0860946          -458.8566634071  1.0175371    
Loop time of 0.961486 on 1 procs for 10000 steps with 144 atoms

Performance: 1797.218 ns/day, 0.013 hours/ns, 10400.569 timesteps/s, 1.498 Matom-step/s
99.8% CPU use with 1 MPI tasks x no OpenMP threads

MPI task timing breakdown:
Section |  min time  |  avg time  |  max time  |%varavg| %total
---------------------------------------------------------------
Pair    | 0.87005    | 0.87005    | 0.87005    |   0.0 | 90.49
Neigh   | 0.014305   | 0.014305   | 0.014305   |   0.0 |  1.49
Comm    | 0.053858   | 0.053858   | 0.053858   |   0.0 |  5.60
Output  | 4.3168e-05 | 4.3168e-05 | 4.3168e-05 |   0.0 |  0.00
Modify  | 0.010843   | 0.010843   | 0.010843   |   0.0 |  1.13
Other   |            | 0.01239    |            |       |  1.29

Nlocal:            144 ave         144 max         144 min
Histogram: 1 0 0 0 0 0 0 0 0 0
Nghost:           3150 ave        3150 max        3150 min
Histogram: 1 0 0 0 0 0 0 0 0 0
Neighs:          13120 ave       13120 max       13120 min
Histogram: 1 0 0 0 0 0 0 0 0 0

Total # of neighbors = 13120
Ave neighs/atom = 91.111111
Neighbor list builds = 29
Dangerous builds = 0
unfix md

#---------------------------------------------------------------------------------------------------
# Final relaxation
#---------------------------------------------------------------------------------------------------
velocity all set 0.0 0.0 0.0

min_style 	cg
min_modify dmax 0.1
minimize 	0.0 1.0e-6 10000 100000
Per MPI rank memory allocation (min/avg/max) = 6.093 | 6.093 | 6.093 Mbytes
   Step        Atoms         Temp          PotEng         KinEng         TotEng          Fmax     
    110000         144   0             -464.94276      0                  -464.9427580470  1.0175371    
    110061         144   0             -467.25536      0                  -467.2553625279  1.2359789e-07
Loop time of 0.0127784 on 1 procs for 61 steps with 144 atoms

98.3% CPU use with 1 MPI tasks x no OpenMP threads

Minimization stats:
  Stopping criterion = force tolerance
  Energy initial, next-to-last, final = 
     -464.942758046964  -467.255362527903  -467.255362527903
  Force two-norm initial, final = 5.1058012 7.1646446e-07
  Force max component initial, final = 1.0175371 1.2359789e-07
  Final line search alpha, max atom move = 1 1.2359789e-07
  Iterations, force evaluations = 61 121

MPI task timing breakdown:
Section |  min time  |  avg time  |  max time  |%varavg| %total
---------------------------------------------------------------
Pair    | 0.011529   | 0.011529   | 0.011529   |   0.0 | 90.22
Neigh   | 0          | 0          | 0          |   0.0 |  0.00
Comm    | 0.00064403 | 0.00064403 | 0.00064403 |   0.0 |  5.04
Output  | 0          | 0          | 0          |   0.0 |  0.00
Modify  | 1.6419e-05 | 1.6419e-05 | 1.6419e-05 |   0.0 |  0.13
Other   |            | 0.0005895  |            |       |  4.61

Nlocal:            144 ave         144 max         144 min
Histogram: 1 0 0 0 0 0 0 0 0 0
Nghost:           3164 ave        3164 max        3164 min
Histogram: 1 0 0 0 0 0 0 0 0 0
Neighs:          13100 ave       13100 max       13100 min
Histogram: 1 0 0 0 0 0 0 0 0 0

Total # of neighbors = 13100
Ave neighs/atom = 90.972222
Neighbor list builds = 0
Dangerous builds = 0

Total wall time: 0:00:01
