ITEM: TIMESTEP
100000
ITEM: NUMBER OF ATOMS
144
ITEM: BOX BOUNDS xy xz yz pp pp pp
0.0000000000000000e+00 2.7281192010247651e+01 4.9602167291359365e+00
0.0000000000000000e+00 3.7710698084230678e+01 1.2400541822839845e+01
0.0000000000000000e+00 1.9734580741297954e+01 2.6619316294751069e+01
ITEM: ATOMS id type x y z c_peatom
70 2 0 0 0 -3.25853
82 2 1.65341 3.69713 0 -3.30112
69 2 4.96022 0 0 -3.25853
81 2 6.61362 3.69713 0 -3.30112
79 1 4.96455 2.21432 1.63066 -3.28352
67 1 9.92476 2.21432 1.63066 -3.28352
80 2 4.13351 4.80627 0.905608 -3.30193
86 1 4.23433 7.01754 2.51525 -3.30542
87 1 4.45309 9.24474 4.173 -3.25497
73 1 2.6748 5.46108 4.04583 -3.24616
88 1 6.79128 7.97357 3.22457 -3.15976
91 2 9.09373 4.80627 0.905608 -3.30193
93 1 6.64393 5.87334 1.60232 -3.26285
94 2 5.78692 8.50339 0.905608 -3.28312
95 2 8.26703 7.39425 0 -3.30112
84 1 7.63502 5.46108 4.04583 -3.24616
92 1 9.19455 7.01754 2.51525 -3.30542
98 1 9.4133 9.24474 4.173 -3.25497
76 1 11.6041 5.87334 1.60232 -3.26285
89 1 11.7515 7.97357 3.22457 -3.15976
96 2 13.2272 7.39425 0 -3.30112
104 2 10.7471 8.50339 0.905608 -3.28312
68 2 7.44033 12.2005 0.905608 -3.32479
100 1 5.80419 10.7459 2.4231 -3.18817
102 1 8.40688 11.8603 3.44774 -3.29958
106 1 8.26815 9.63903 1.71462 -3.37417
99 1 6.97454 10.0347 4.57379 -2.84862
77 2 12.4005 12.2005 0.905608 -3.32479
90 1 13.2284 9.63903 1.71462 -3.37417
103 1 13.3671 11.8603 3.44774 -3.29958
105 1 10.7644 10.7459 2.4231 -3.18817
108 1 10.8188 12.8876 4.12004 -3.26765
83 1 11.9348 10.0347 4.57379 -2.84862
101 1 15.779 12.8876 4.12004 -3.26765
72 1 7.48751 14.364 2.49269 -3.27424
74 1 10.0478 15.4648 3.29067 -3.26841
78 1 12.4477 14.364 2.49269 -3.27424
85 1 10.2735 17.6679 4.89255 -3.22194
75 1 15.008 15.4648 3.29067 -3.26841
71 1 15.2337 17.6679 4.89255 -3.22194
1 1 7.99012 7.63006 5.65521 -3.20183
9 1 5.84027 8.88122 6.4922 -3.12225
2 1 12.9503 7.63006 5.65521 -3.20183
3 1 10.8005 8.88122 6.4922 -3.12225
109 1 8.28749 14.136 4.99127 -3.2689
5 1 7.2927 11.8408 6.04395 -2.8433
6 1 8.52838 9.9223 7.18239 -3.29616
8 2 8.68038 12.2005 8.96168 -3.34119
17 1 7.16405 13.7991 7.49087 -3.11309
97 1 13.2477 14.136 4.99127 -3.2689
4 1 13.4886 9.9223 7.18239 -3.29616
10 2 13.6406 12.2005 8.96168 -3.34119
14 1 12.2529 11.8408 6.04395 -2.8433
15 1 9.73127 12.5522 6.53881 -3.2168
16 1 12.1243 13.7991 7.49087 -3.11309
20 1 14.6915 12.5522 6.53881 -3.2168
22 1 8.13899 16.3056 6.6093 -3.2393
31 2 11.9872 15.8976 8.96168 -3.24731
34 1 9.58289 14.7813 8.23209 -3.30517
35 1 10.708 15.1508 5.80026 -3.29554
36 1 10.4809 17.4159 7.39538 -3.24803
42 1 12.8494 18.5214 8.25625 -3.28845
44 1 13.0992 16.3056 6.6093 -3.2393
18 1 14.5431 14.7813 8.23209 -3.30517
19 2 16.9474 15.8976 8.96168 -3.24731
21 1 15.6682 15.1508 5.80026 -3.29554
41 1 15.4411 17.4159 7.39538 -3.24803
46 1 17.8097 18.5214 8.25625 -3.28845
7 1 11.1115 22.1394 8.27 -3.25508
53 2 10.3338 19.5948 8.96168 -3.26802
13 1 16.0717 22.1394 8.27 -3.25508
43 2 15.294 19.5948 8.96168 -3.26802
26 2 16.1207 13.3097 9.86729 -3.26471
32 2 9.50708 17.0068 9.86729 -3.33369
33 2 11.9872 18.1159 10.7729 -3.26802
30 1 11.2095 15.5713 11.4646 -3.25508
37 2 16.9474 18.1159 10.7729 -3.26802
40 2 14.4673 17.0068 9.86729 -3.33369
24 1 16.1697 15.5713 11.4646 -3.25508
49 1 11.8401 20.2948 12.3392 -3.24803
51 1 11.613 22.5599 13.9343 -3.29554
52 1 9.47154 19.1893 11.4783 -3.28845
54 2 10.3338 21.8131 10.7729 -3.24731
58 1 12.7381 22.9294 11.5025 -3.30517
60 2 12.8139 20.7039 9.86729 -3.33369
38 1 14.4318 19.1893 11.4783 -3.28845
39 1 16.8003 20.2948 12.3392 -3.24803
45 2 17.7741 20.7039 9.86729 -3.33369
55 1 16.5732 22.5599 13.9343 -3.29554
56 1 14.182 21.4051 13.1253 -3.2393
57 2 15.294 21.8131 10.7729 -3.24731
62 1 17.6983 22.9294 11.5025 -3.30517
50 1 19.1422 21.4051 13.1253 -3.2393
66 1 12.5897 25.1585 13.1958 -3.2168
11 2 16.1207 24.401 9.86729 -3.26471
23 2 13.6406 25.5102 10.7729 -3.34119
25 1 13.7926 27.7884 12.5522 -3.29616
59 1 15.1569 23.9116 12.2437 -3.11309
61 1 17.5499 25.1585 13.1958 -3.2168
65 1 15.0283 25.8699 13.6906 -2.8433
115 1 14.0335 23.5747 14.7433 -3.2689
12 2 18.6008 25.5102 10.7729 -3.34119
27 1 18.7528 27.7884 12.5522 -3.29616
63 1 20.1171 23.9116 12.2437 -3.11309
64 1 19.9885 25.8699 13.6906 -2.8433
129 1 18.9937 23.5747 14.7433 -3.2689
28 1 16.4807 28.8295 13.2424 -3.12225
47 1 14.3309 30.0806 14.0794 -3.20183
29 1 19.2911 30.0806 14.0794 -3.20183
48 1 21.4409 28.8295 13.2424 -3.12225
107 1 12.0475 20.0428 14.842 -3.22194
114 1 12.2732 22.2459 16.4439 -3.26841
117 1 17.0077 20.0428 14.842 -3.22194
112 1 14.8335 23.3467 17.2419 -3.27424
113 1 17.2334 22.2459 16.4439 -3.26841
120 1 19.7937 23.3467 17.2419 -3.27424
128 1 11.5022 24.8231 15.6145 -3.26765
127 1 15.3464 27.676 15.1608 -2.84862
118 2 14.8807 25.5102 18.829 -3.32479
119 1 14.0528 28.0717 18.02 -3.37417
123 1 16.4624 24.8231 15.6145 -3.26765
124 1 16.5168 26.9648 17.3115 -3.18817
126 1 13.9141 25.8504 16.2868 -3.29958
140 1 20.3067 27.676 15.1608 -2.84862
121 2 19.8409 25.5102 18.829 -3.32479
125 1 18.8743 25.8504 16.2868 -3.29958
132 1 21.477 26.9648 17.3115 -3.18817
134 1 19.013 28.0717 18.02 -3.37417
130 2 16.5341 29.2073 18.829 -3.28312
131 1 15.677 31.8374 18.1323 -3.26285
138 1 15.5297 29.7371 16.51 -3.15976
135 1 17.8679 28.466 15.5616 -3.25497
136 1 18.0866 30.6932 17.2193 -3.30542
111 1 19.6462 32.2496 15.6887 -3.24616
133 2 21.4943 29.2073 18.829 -3.28312
137 1 20.4899 29.7371 16.51 -3.15976
141 2 18.1875 32.9044 18.829 -3.30193
144 1 20.6373 31.8374 18.1323 -3.26285
116 1 24.6064 32.2496 15.6887 -3.24616
139 1 22.8281 28.466 15.5616 -3.25497
142 1 23.0469 30.6932 17.2193 -3.30542
143 2 23.1477 32.9044 18.829 -3.30193
110 1 17.3564 35.4964 18.1039 -3.28352
122 1 22.3166 35.4964 18.1039 -3.28352
