#Lammps coordinate file for CSL - Axis: [1 1 1]  Angle: (1, 3) -> 59.99999999999999  Plane indices: [0 1 1]  z-position: [5.4336451853244885 16.300935555973464]  Repeats: 1 1 (3, 3) (black, white)  Fixed: 2.228  Boundary equiv: True
144 atoms

2 atom types

0.0 9.920433458271871 xlo xhi
0.0 11.091381789479609 ylo yhi
0.0 21.734580741297954 zlo zhi
4.9602167291359365 6.820298002561917 33.551429913175824 xy xz yz

Atoms

1 1 5.890257365848925 11.230024061848106 6.339252716211904
2 1 10.850474094984857 11.230024061848106 6.339252716211904
3 1 8.370365730416893 12.339162240796067 7.24486024709932
4 1 10.85047409498486 13.44830041974403 8.150467777986734
5 1 14.15728524774215 14.927151325007976 6.339252716211904
6 1 5.890257365848925 13.44830041974403 8.150467777986734
7 1 3.4101490012809577 14.557438598691991 9.05607530887415
8 2 5.890257365848925 15.66657677763995 9.961682839761563
9 1 3.4101490012809577 12.339162240796067 7.244860247099319
10 2 10.85047409498486 15.66657677763995 9.961682839761563
11 2 8.370365730416893 16.775714956587912 10.867290370648979
12 2 10.85047409498486 17.884853135535874 11.772897901536393
13 1 8.370365730416893 14.557438598691991 9.05607530887415
14 1 9.197068518606214 14.927151325007976 6.339252716211904
15 1 6.716960154038247 16.03628950395594 7.244860247099319
16 1 9.197068518606214 17.1454276829039 8.150467777986734
17 1 14.15728524774215 17.145427682903897 8.150467777986734
18 1 11.677176883174184 18.25456586185186 9.05607530887415
19 2 14.157285247742152 19.36370404079982 9.961682839761563
20 1 11.677176883174182 16.03628950395594 7.24486024709932
21 1 12.503879671363507 18.624278588167847 6.339252716211903
22 1 14.983988035931475 19.73341676711581 7.244860247099318
23 2 5.890257365848926 17.884853135535874 11.772897901536393
24 1 3.4101490012809585 18.993991314483836 12.678505432423808
25 1 5.890257365848926 20.103129493431798 13.584112963311222
26 2 3.4101490012809585 16.775714956587912 10.867290370648979
27 1 10.850474094984861 20.103129493431798 13.584112963311222
28 1 8.370365730416895 21.212267672379756 14.489720494198638
29 1 10.850474094984861 22.321405851327718 15.395328025086053
30 1 8.370365730416895 18.993991314483836 12.678505432423808
31 2 9.197068518606216 19.36370404079982 9.961682839761563
32 2 6.716960154038249 20.472842219747783 10.867290370648979
33 2 9.197068518606216 21.581980398695745 11.772897901536393
34 1 6.716960154038249 18.254565861851862 9.05607530887415
35 1 7.54366294222757 18.624278588167847 6.339252716211903
36 1 7.54366294222757 20.84255494606377 8.150467777986734
37 2 14.157285247742152 21.581980398695745 11.772897901536393
38 1 11.677176883174184 22.691118577643707 12.678505432423808
39 1 14.157285247742152 23.80025675659167 13.584112963311224
40 2 11.677176883174184 20.472842219747783 10.867290370648979
41 1 12.503879671363507 20.842554946063768 8.150467777986734
42 1 10.023771306795538 21.951693125011733 9.05607530887415
43 2 12.503879671363507 23.06083130395969 9.961682839761563
44 1 10.023771306795538 19.73341676711581 7.244860247099319
45 2 14.983988035931475 24.169969482907653 10.867290370648977
46 1 14.983988035931475 21.95169312501173 9.05607530887415
47 1 5.890257365848926 22.32140585132772 15.395328025086052
48 1 3.4101490012809594 21.21226767237976 14.489720494198638
49 1 9.197068518606216 23.80025675659167 13.584112963311222
50 1 6.716960154038251 24.909394935539627 14.489720494198638
51 1 9.197068518606217 26.01853311448759 15.395328025086053
52 1 6.716960154038249 22.691118577643707 12.678505432423808
53 2 7.54366294222757 23.06083130395969 9.961682839761563
54 2 7.543662942227572 25.279107661855615 11.772897901536393
55 1 14.157285247742152 26.01853311448759 15.395328025086052
56 1 11.677176883174184 24.909394935539627 14.48972049419864
57 2 12.503879671363507 25.279107661855615 11.772897901536393
58 1 10.02377130679554 26.388245840803577 12.678505432423808
59 1 12.503879671363508 27.49738401975154 13.584112963311224
60 2 10.023771306795538 24.169969482907653 10.867290370648979
61 1 14.983988035931473 28.606522198699498 14.489720494198636
62 1 14.983988035931471 26.388245840803574 12.678505432423808
63 1 7.543662942227572 27.49738401975154 13.58411296331122
64 1 7.543662942227572 29.71566037764746 15.395328025086052
65 1 12.503879671363508 29.71566037764746 15.39532802508605
66 1 10.02377130679554 28.606522198699498 14.489720494198638
67 1 4.440892098500626e-16 2.2182763578959226 1.8112150617748295
68 2 2.480108364567968 1.109138178947961 0.9056075308874146
69 2 4.960216729135936 -4.440892098500626e-16 -1.9455644930253686e-16
70 2 0.0 0.0 0.0
71 1 4.440892098500626e-16 6.654829073687768 5.4336451853244885
72 1 2.480108364567968 3.327414536843884 2.7168225926622442
73 1 2.4801083645679682 5.545690894739806 4.528037654437074
74 1 4.960216729135936 4.436552715791845 3.622430123549659
75 1 4.440892098500626e-16 4.436552715791845 3.622430123549659
76 1 1.6534055763786455 5.915403621055794 1.811215061774829
77 2 7.440325093703903 1.109138178947961 0.9056075308874145
78 1 7.440325093703903 3.3274145368438837 2.7168225926622442
79 1 4.960216729135936 2.218276357895922 1.8112150617748293
80 2 4.133513940946613 4.806265442107832 0.9056075308874143
81 2 6.61362230551458 3.6971272631598704 -5.836693479076105e-16
82 2 1.6534055763786453 3.697127263159871 -3.8911289860507373e-16
83 1 1.6534055763786455 10.351956336847639 5.4336451853244885
84 1 7.440325093703903 5.545690894739806 4.528037654437074
85 1 4.960216729135936 6.654829073687768 5.4336451853244885
86 1 4.133513940946613 7.024541800003755 2.716822592662244
87 1 4.133513940946613 9.242818157899677 4.528037654437074
88 1 6.61362230551458 8.133679978951715 3.6224301235496585
89 1 1.6534055763786457 8.133679978951717 3.6224301235496585
90 1 3.3068111527572905 9.612530884215664 1.8112150617748288
91 2 9.093730670082548 4.806265442107832 0.9056075308874142
92 1 9.093730670082547 7.024541800003755 2.716822592662244
93 1 6.61362230551458 5.915403621055793 1.8112150617748288
94 2 5.7869195173252574 8.503392705267704 0.9056075308874139
95 2 8.267027881893226 7.394254526319742 -9.727822465126844e-16
96 2 3.3068111527572905 7.394254526319742 -7.782257972101475e-16
97 1 3.306811152757291 14.04908360000751 5.433645185324488
98 1 9.093730670082547 9.242818157899677 4.528037654437074
99 1 6.613622305514581 10.351956336847639 5.4336451853244885
100 1 5.786919517325258 10.721669063163626 2.7168225926622434
101 1 5.786919517325258 12.939945421059548 4.528037654437073
102 1 8.267027881893226 11.830807242111586 3.622430123549658
103 1 3.306811152757291 11.83080724211159 3.622430123549658
104 2 10.747136246461192 8.503392705267704 0.9056075308874137
105 1 10.747136246461192 10.721669063163626 2.7168225926622434
106 1 8.267027881893226 9.612530884215664 1.8112150617748286
107 1 6.8202980025619135 26.896600839488062 16.300935555973467
108 1 10.747136246461192 12.939945421059548 4.528037654437073
109 1 8.267027881893226 14.04908360000751 5.433645185324488
110 1 6.8202980025619135 31.333153555279907 19.923365679523123
111 1 9.300406367129881 28.005739018436024 17.20654308686088
112 1 9.300406367129883 30.22401537633195 19.01775814863571
113 1 11.78051473169785 29.114877197383986 18.112150617748295
114 1 6.8202980025619135 29.114877197383986 18.112150617748295
115 1 8.473703578940558 30.593728102647933 16.300935555973464
116 1 14.260623096265816 28.005739018436024 17.20654308686088
117 1 11.78051473169785 26.896600839488062 16.300935555973464
118 2 9.300406367129883 32.442291734227865 20.82897321041054
119 1 8.47370357894056 35.03028081843978 19.923365679523123
120 1 14.260623096265816 30.224015376331945 19.017758148635707
121 2 14.260623096265817 32.442291734227865 20.82897321041054
122 1 11.78051473169785 31.333153555279907 19.923365679523126
123 1 10.953811943508526 31.702866281595895 17.20654308686088
124 1 10.953811943508528 33.92114263949182 19.01775814863571
125 1 13.433920308076495 32.812004460543854 18.112150617748295
126 1 8.47370357894056 32.812004460543854 18.112150617748295
127 1 10.127109155319204 34.2908553658078 16.300935555973464
128 1 15.914028672644463 31.702866281595895 17.20654308686088
129 1 13.433920308076495 30.593728102647933 16.300935555973464
130 2 10.953811943508528 36.139418997387736 20.82897321041054
131 1 10.127109155319205 38.72740808159964 19.923365679523123
132 1 15.914028672644463 33.92114263949181 19.017758148635707
133 2 15.914028672644463 36.139418997387736 20.82897321041054
134 1 13.433920308076495 35.03028081843978 19.923365679523126
135 1 12.607217519887172 35.399993544755766 17.20654308686088
136 1 12.607217519887174 37.61826990265168 19.01775814863571
137 1 15.08732588445514 36.509131723703725 18.112150617748295
138 1 10.127109155319205 36.509131723703725 18.112150617748295
139 1 17.56743424902311 35.399993544755766 17.20654308686088
140 1 15.08732588445514 34.2908553658078 16.300935555973464
141 2 12.607217519887174 39.83654626054761 20.82897321041054
142 1 17.56743424902311 37.61826990265168 19.017758148635707
143 2 17.56743424902311 39.83654626054761 20.82897321041054
144 1 15.08732588445514 38.72740808159964 19.923365679523126
